LAMMPS (31 Mar 2017)
Reading data file ...
  orthogonal box = (0 0 0) to (48.6977 48.6977 48.6977)
  1 by 1 by 1 MPI processor grid
  reading atoms ...
  12 atoms
  scanning bonds ...
  1 = max bonds/atom
  scanning angles ...
  1 = max angles/atom
  scanning dihedrals ...
  1 = max dihedrals/atom
  reading bonds ...
  11 bonds
  reading angles ...
  10 angles
  reading dihedrals ...
  9 dihedrals
Finding 1-2 1-3 1-4 neighbors ...
  special bond factors lj:   0          0          0         
  special bond factors coul: 0          0          0         
  2 = max # of 1-2 neighbors
  2 = max # of 1-3 neighbors
  4 = max # of 1-4 neighbors
  6 = max # of special neighbors
WARNING: No fixes defined, atoms won't move (../verlet.cpp:55)
Neighbor list info ...
  update every 1 steps, delay 0 steps, check yes
  max neighbors/atom: 2000, page size: 100000
  master list distance cutoff = 15
  ghost atom cutoff = 15
  binsize = 7.5, bins = 7 7 7
  1 neighbor lists, perpetual/occasional/extra = 1 0 0
  (1) pair lj/cut, perpetual
      attributes: half, newton on
      pair build: half/bin/newton
      stencil: half/bin/3d/newton
      bin: standard
Dihedral 4.582843 radians, -97.422244 shifted degrees
m_du_dphi 55818.961004
f1: 0.055605, 0.023195, -0.296083
f2: -0.157587, -0.040683, 0.407944
f3: 0.365292, 0.040745, -0.023861
f4: -0.263310, -0.023257, -0.088001
Dihedral 0.643442 radians, 36.866525 shifted degrees
m_du_dphi -21122.945251
f1: 0.263818, 0.023302, 0.088170
f2: -0.336874, -0.031694, -0.113395
f3: 0.302740, -0.120300, 0.039855
f4: -0.229685, 0.128691, -0.014631
Dihedral 1.040016 radians, 59.588555 shifted degrees
m_du_dphi -34141.698064
f1: 0.232352, -0.130186, 0.014801
f2: -0.236592, 0.147020, -0.041123
f3: 0.061688, -0.164465, 0.238001
f4: -0.057449, 0.147632, -0.211678
Dihedral 2.147594 radians, 123.048149 shifted degrees
m_du_dphi -70501.336705
f1: 0.057741, -0.148382, 0.212754
f2: -0.095000, -0.051966, -0.233063
f3: 0.084908, 0.546609, 0.010705
f4: -0.047648, -0.346261, 0.009604
Dihedral 3.018292 radians, 172.935531 shifted degrees
m_du_dphi -99084.676894
f1: 0.046733, 0.339613, -0.009420
f2: -0.065470, -0.405328, 0.028217
f3: -0.004556, -0.240805, -0.043369
f4: 0.023292, 0.306519, 0.024572
Dihedral 3.424694 radians, -163.779309 shifted degrees
m_du_dphi 93838.726554
f1: -0.023473, -0.308906, -0.024763
f2: 0.035093, 0.468718, 0.036653
f3: -0.028648, 0.101391, -0.055755
f4: 0.017028, -0.261203, 0.043866
Dihedral 1.720881 radians, 98.599294 shifted degrees
m_du_dphi -56493.186402
f1: -0.017029, 0.261222, -0.043869
f2: -0.117484, -0.231314, 0.112580
f3: 0.398627, -0.081427, -0.205093
f4: -0.264113, 0.051519, 0.136382
Dihedral 4.792675 radians, -85.399732 shifted degrees
m_du_dphi 48930.574925
f1: 0.268344, -0.052345, -0.138567
f2: -0.339650, 0.015473, 0.383234
f3: -0.030132, 0.141315, -0.538784
f4: 0.101439, -0.104443, 0.294116
Dihedral 3.406193 radians, -164.839338 shifted degrees
m_du_dphi 94446.078298
f1: -0.101097, 0.104091, -0.293125
f2: 0.144653, -0.079457, 0.306693
f3: -0.012980, -0.177534, 0.272068
f4: -0.030576, 0.152900, -0.285637
Per MPI rank memory allocation (min/avg/max) = 6.629 | 6.629 | 6.629 Mbytes
Step PotEng KinEng E_vdwl E_bond E_angle E_dihed Volume Press 
       0    653257.98            0            0            0            0    653257.98    115484.94 -2.8800343e-12 
Dihedral 4.310229 radians, -113.041839 shifted degrees
m_du_dphi 64768.322368
f1: -0.010137, 0.052404, -0.295576
f2: -0.018306, -0.085619, 0.417990
f3: 0.264050, 0.095618, -0.013203
f4: -0.235607, -0.062403, -0.109211
Dihedral 0.755551 radians, 43.289943 shifted degrees
m_du_dphi -24803.289387
f1: 0.240080, 0.063588, 0.111285
f2: -0.281053, -0.068141, -0.127250
f3: 0.277585, -0.109733, 0.040617
f4: -0.236612, 0.114286, -0.024651
Dihedral 0.829141 radians, 47.506335 shifted degrees
m_du_dphi -27219.101679
f1: 0.237298, -0.114617, 0.024723
f2: -0.258023, 0.138586, -0.047661
f3: 0.122218, -0.187925, 0.204601
f4: -0.101493, 0.163956, -0.181663
Dihedral 1.901258 radians, 108.934144 shifted degrees
m_du_dphi -62414.613975
f1: 0.101795, -0.164444, 0.182203
f2: -0.134724, -0.054936, -0.288207
f3: 0.062684, 0.564266, 0.227111
f4: -0.029755, -0.344886, -0.121107
Dihedral 3.137321 radians, 179.755394 shifted degrees
m_du_dphi 89249.032664
f1: 0.029685, 0.344080, 0.120824
f2: -0.016382, -0.183127, -0.062492
f3: -0.053641, -0.636525, -0.227480
f4: 0.040338, 0.475572, 0.169149
Dihedral 3.757244 radians, -144.725606 shifted degrees
m_du_dphi 82921.768310
f1: -0.039954, -0.471045, -0.167539
f2: 0.074366, 0.873816, 0.311931
f3: -0.047379, -0.149958, -0.211836
f4: 0.012968, -0.252812, 0.067443
Dihedral 2.150951 radians, 123.240524 shifted degrees
m_du_dphi -70611.559537
f1: -0.013173, 0.256821, -0.068513
f2: -0.095687, -0.189301, 0.074571
f3: 0.359958, -0.227276, -0.018914
f4: -0.251097, 0.159756, 0.012856
Dihedral 4.365997 radians, -109.846612 shifted degrees
m_du_dphi 62937.593512
f1: 0.246235, -0.156663, -0.012607
f2: -0.323492, 0.189261, 0.136938
f3: 0.001074, 0.053133, -0.391367
f4: 0.076182, -0.085731, 0.267036
Dihedral 3.546875 radians, -156.778881 shifted degrees
m_du_dphi 89827.780299
f1: -0.077778, 0.087526, -0.272629
f2: 0.132596, -0.003849, 0.173590
f3: -0.087005, -0.263411, 0.418807
f4: 0.032186, 0.179734, -0.319768
Dihedral 4.472706 radians, -103.732595 shifted degrees
m_du_dphi 59434.522773
f1: 0.006172, 0.027527, -0.311728
f2: -0.051119, -0.054658, 0.469527
f3: 0.289632, 0.098235, -0.083403
f4: -0.244685, -0.071103, -0.074396
Dihedral 0.622622 radians, 35.673620 shifted degrees
m_du_dphi -20439.461234
f1: 0.248797, 0.072298, 0.075646
f2: -0.307379, -0.078304, -0.089755
f3: 0.310292, -0.077570, 0.037966
f4: -0.251710, 0.083575, -0.023857
Dihedral 0.884999 radians, 50.706756 shifted degrees
m_du_dphi -29052.806769
f1: 0.248013, -0.082348, 0.023507
f2: -0.270341, 0.093218, -0.032778
f3: 0.138759, -0.141670, 0.211018
f4: -0.116431, 0.130800, -0.201747
Dihedral 1.890119 radians, 108.295949 shifted degrees
m_du_dphi -62048.955513
f1: 0.115846, -0.130143, 0.200734
f2: -0.134017, -0.060845, -0.244402
f3: 0.041058, 0.516348, 0.103555
f4: -0.022887, -0.325360, -0.059887
Dihedral 3.580929 radians, -154.827708 shifted degrees
m_du_dphi 88709.841250
f1: 0.023008, 0.327088, 0.060205
f2: 0.021320, -0.290469, -0.149885
f3: -0.131212, -0.383187, 0.170235
f4: 0.086884, 0.346568, -0.080554
Dihedral 3.269705 radians, -172.659520 shifted degrees
m_du_dphi 98926.708384
f1: -0.085652, -0.341657, 0.079413
f2: 0.147756, 0.593163, -0.139981
f3: -0.015139, -0.009255, -0.026398
f4: -0.046965, -0.242251, 0.086966
Dihedral 1.577865 radians, 90.405061 shifted degrees
m_du_dphi -51798.240517
f1: 0.048460, 0.249960, -0.089734
f2: -0.165895, -0.193489, 0.128249
f3: 0.387046, -0.146615, -0.137614
f4: -0.269611, 0.090143, 0.099099
Dihedral 4.528379 radians, -100.542756 shifted degrees
m_du_dphi 57606.881216
f1: 0.263044, -0.087948, -0.096685
f2: -0.299654, 0.076570, 0.315104
f3: -0.107216, 0.098524, -0.504517
f4: 0.143826, -0.087147, 0.286098
Dihedral 3.589144 radians, -154.357016 shifted degrees
m_du_dphi 88440.155015
f1: -0.144951, 0.087829, -0.288337
f2: 0.212481, 0.031681, 0.156958
f3: -0.044112, -0.333913, 0.509568
f4: -0.023417, 0.214404, -0.378189
Dihedral 4.376306 radians, -109.255903 shifted degrees
m_du_dphi 62599.142498
f1: 0.030087, 0.015715, -0.290110
f2: -0.074915, -0.037881, 0.393837
f3: 0.264689, 0.128493, 0.015000
f4: -0.219861, -0.106327, -0.118728
Dihedral 0.860939 radians, 49.328196 shifted degrees
m_du_dphi -28262.950327
f1: 0.219162, 0.105989, 0.118351
f2: -0.259092, -0.118295, -0.137359
f3: 0.277572, -0.092881, 0.067101
f4: -0.237643, 0.105186, -0.048092
Dihedral 0.792030 radians, 45.380038 shifted degrees
m_du_dphi -26000.824494
f1: 0.241627, -0.106950, 0.048898
f2: -0.251073, 0.112933, -0.054221
f3: 0.113672, -0.145645, 0.203495
f4: -0.104226, 0.139663, -0.198172
Dihedral 1.995130 radians, 114.312607 shifted degrees
m_du_dphi -65496.244195
f1: 0.104351, -0.139830, 0.198410
f2: -0.120657, -0.031592, -0.221073
f3: 0.042227, 0.487035, 0.056832
f4: -0.025921, -0.315612, -0.034169
Dihedral 3.301031 radians, -170.864721 shifted degrees
m_du_dphi 97898.365464
f1: 0.025798, 0.314114, 0.034007
f2: 0.007355, -0.186562, -0.063319
f3: -0.096076, -0.528082, 0.043048
f4: 0.062923, 0.400530, -0.013735
Dihedral 3.572929 radians, -155.286077 shifted degrees
m_du_dphi 88972.467348
f1: -0.062842, -0.400015, 0.013717
f2: 0.109266, 0.678969, -0.012454
f3: -0.034944, -0.041794, -0.116730
f4: -0.011480, -0.237161, 0.115467
Dihedral 1.768842 radians, 101.347265 shifted degrees
m_du_dphi -58067.656565
f1: 0.011600, 0.239635, -0.116671
f2: -0.123531, -0.217609, 0.155744
f3: 0.372518, -0.129538, -0.103857
f4: -0.260587, 0.107512, 0.064785
Dihedral 4.514929 radians, -101.313396 shifted degrees
m_du_dphi 58048.425224
f1: 0.261324, -0.107816, -0.064968
f2: -0.312908, 0.142735, 0.221994
f3: -0.074067, -0.012174, -0.433468
f4: 0.125651, -0.022745, 0.276443
Dihedral 3.786726 radians, -143.036416 shifted degrees
m_du_dphi 81953.934773
f1: -0.123095, 0.022282, -0.270821
f2: 0.205932, 0.066431, 0.204014
f3: -0.118011, -0.242871, 0.374921
f4: 0.035175, 0.154158, -0.308114
Dihedral 4.335245 radians, -111.608567 shifted degrees
m_du_dphi 63947.118564
f1: 0.008599, -0.018776, -0.297710
f2: -0.012694, 0.027073, 0.431577
f3: 0.205771, 0.128165, -0.040357
f4: -0.201676, -0.136461, -0.093509
Dihedral 1.030605 radians, 59.049377 shifted degrees
m_du_dphi -33832.772162
f1: 0.203766, 0.137875, 0.094478
f2: -0.192609, -0.144015, -0.091371
f3: 0.217784, -0.114341, 0.061492
f4: -0.228940, 0.120481, -0.064600
Dihedral 0.770604 radians, 44.152403 shifted degrees
m_du_dphi -25297.442057
f1: 0.224243, -0.118009, 0.063274
f2: -0.222484, 0.121637, -0.080718
f3: 0.101822, -0.105973, 0.235137
f4: -0.103580, 0.102345, -0.217693
Dihedral 2.128217 radians, 121.937969 shifted degrees
m_du_dphi -69865.250741
f1: 0.105782, -0.104520, 0.222321
f2: -0.126538, -0.049471, -0.207533
f3: 0.041505, 0.459662, -0.080357
f4: -0.020750, -0.305671, 0.065569
Dihedral 3.407342 radians, -164.773512 shifted degrees
m_du_dphi 94408.362550
f1: 0.020530, 0.302429, -0.064874
f2: 0.022552, -0.203344, -0.028099
f3: -0.115848, -0.453352, 0.265071
f4: 0.072766, 0.354266, -0.172099
Dihedral 3.177324 radians, -177.952607 shifted degrees
m_du_dphi 101959.421358
f1: -0.072398, -0.352472, 0.171227
f2: 0.124701, 0.606650, -0.294199
f3: -0.006577, -0.022222, 0.000141
f4: -0.045727, -0.231955, 0.122831
Dihedral 1.680086 radians, 96.261911 shifted degrees
m_du_dphi -55153.965883
f1: 0.045522, 0.230918, -0.122281
f2: -0.158787, -0.194200, 0.149270
f3: 0.381495, -0.153472, -0.077385
f4: -0.268231, 0.116754, 0.050397
Dihedral 4.450312 radians, -105.015672 shifted degrees
m_du_dphi 60169.671152
f1: 0.264815, -0.115268, -0.049755
f2: -0.303211, 0.146849, 0.232470
f3: -0.094222, -0.000498, -0.472255
f4: 0.132618, -0.031084, 0.289540
Dihedral 4.100766 radians, -125.043228 shifted degrees
m_du_dphi 71644.605947
f1: -0.134001, 0.031408, -0.292561
f2: 0.306079, 0.078298, 0.263255
f3: -0.318566, -0.297772, 0.309802
f4: 0.146489, 0.188066, -0.280496
Dihedral 4.560032 radians, -98.729215 shifted degrees
m_du_dphi 56567.799592
f1: 0.066911, -0.011814, -0.266528
f2: -0.118275, -0.008414, 0.334354
f3: 0.254737, 0.176379, 0.018691
f4: -0.203373, -0.156150, -0.086517
Dihedral 1.004209 radians, 57.536993 shifted degrees
m_du_dphi -32966.240976
f1: 0.203394, 0.156166, 0.086526
f2: -0.244373, -0.175996, -0.101883
f3: 0.280532, -0.076105, 0.067322
f4: -0.239553, 0.095935, -0.051965
Dihedral 0.643778 radians, 36.885782 shifted degrees
m_du_dphi -21133.978711
f1: 0.243590, -0.097552, 0.052841
f2: -0.271590, 0.115063, -0.078511
f3: 0.178567, -0.129892, 0.220390
f4: -0.150567, 0.112381, -0.194720
Dihedral 1.926008 radians, 110.352247 shifted degrees
m_du_dphi -63227.126555
f1: 0.147480, -0.110077, 0.190728
f2: -0.165586, -0.004259, -0.226895
f3: 0.017013, 0.405121, 0.063674
f4: 0.001093, -0.290784, -0.027507
Dihedral 3.601674 radians, -153.639129 shifted degrees
m_du_dphi 88028.836198
f1: -0.001114, 0.296475, 0.028046
f2: 0.052162, -0.193504, -0.115122
f3: -0.125738, -0.440751, 0.198105
f4: 0.074690, 0.337780, -0.111029
Dihedral 3.297688 radians, -171.056231 shifted degrees
m_du_dphi 98008.092499
f1: -0.074088, -0.335057, 0.110134
f2: 0.115703, 0.509556, -0.157824
f3: -0.001382, 0.066273, -0.072962
f4: -0.040233, -0.240771, 0.120652
Dihedral 1.420557 radians, 81.392018 shifted degrees
m_du_dphi -46634.151805
f1: 0.040333, 0.241367, -0.120950
f2: -0.187194, -0.257464, 0.239937
f3: 0.399883, -0.057216, -0.286342
f4: -0.253022, 0.073314, 0.167354
Dihedral 4.985830 radians, -74.332729 shifted degrees
m_du_dphi 42589.654858
f1: 0.254977, -0.073880, -0.168648
f2: -0.351658, 0.082140, 0.415739
f3: 0.021047, 0.051215, -0.545293
f4: 0.075633, -0.059474, 0.298202
Dihedral 4.163335 radians, -121.458282 shifted degrees
m_du_dphi 69590.585029
f1: -0.074878, 0.058880, -0.295222
f2: 0.241007, 0.061632, 0.321831
f3: -0.355906, -0.349706, 0.171998
f4: 0.189777, 0.229193, -0.198607
Dihedral 4.481309 radians, -103.239704 shifted degrees
m_du_dphi 59152.117406
f1: -0.016862, 0.016026, -0.306315
f2: -0.000649, -0.031899, 0.444327
f3: 0.260500, 0.095988, -0.087285
f4: -0.242990, -0.080116, -0.050727
Dihedral 0.597307 radians, 34.223188 shifted degrees
m_du_dphi -19608.425949
f1: 0.244961, 0.080765, 0.051139
f2: -0.277068, -0.087157, -0.056874
f3: 0.285990, -0.063934, 0.023192
f4: -0.253883, 0.070326, -0.017457
Dihedral 0.966593 radians, 55.381724 shifted degrees
m_du_dphi -31731.363530
f1: 0.249565, -0.069130, 0.017161
f2: -0.267326, 0.079856, -0.038024
f3: 0.133071, -0.105070, 0.239903
f4: -0.115310, 0.094344, -0.219040
Dihedral 1.970137 radians, 112.880611 shifted degrees
m_du_dphi -64675.771479
f1: 0.115380, -0.094401, 0.219173
f2: -0.121929, -0.068075, -0.234917
f3: -0.001078, 0.475533, 0.007293
f4: 0.007628, -0.313056, 0.008451
Dihedral 3.270835 radians, -172.594813 shifted degrees
m_du_dphi 98889.634222
f1: -0.007659, 0.314330, -0.008486
f2: 0.020563, -0.264077, -0.017923
f3: -0.026284, -0.387958, 0.073841
f4: 0.013380, 0.337705, -0.047432
Dihedral 3.345868 radians, -168.295709 shifted degrees
m_du_dphi 96426.431069
f1: -0.013513, -0.341062, 0.047903
f2: 0.024091, 0.502702, -0.059017
f3: -0.019106, 0.092116, -0.076123
f4: 0.008528, -0.253755, 0.087237
Dihedral 1.709102 radians, 97.924440 shifted degrees
m_du_dphi -56106.523994
f1: -0.008482, 0.252371, -0.086761
f2: -0.186892, -0.242651, 0.220035
f3: 0.491916, -0.110463, -0.303973
f4: -0.296542, 0.100743, 0.170699
Dihedral 5.024517 radians, -72.116140 shifted degrees
m_du_dphi 41319.643936
f1: 0.293605, -0.099745, -0.169009
f2: -0.482436, 0.128090, 0.410574
f3: 0.165520, 0.059498, -0.524732
f4: 0.023310, -0.087843, 0.283167
Dihedral 3.978124 radians, -132.070081 shifted degrees
m_du_dphi 75670.692527
f1: -0.023189, 0.087385, -0.281691
f2: 0.129207, -0.011638, 0.311176
f3: -0.277014, -0.282163, 0.146017
f4: 0.170996, 0.206416, -0.175501
Dihedral 4.493707 radians, -102.529317 shifted degrees
m_du_dphi 58745.095896
f1: -0.032979, 0.009867, -0.301777
f2: 0.035911, -0.019076, 0.439184
f3: 0.241209, 0.101935, -0.103555
f4: -0.244140, -0.092726, -0.033852
Dihedral 0.855704 radians, 49.028271 shifted degrees
m_du_dphi -28091.106120
f1: 0.243157, 0.092353, 0.033715
f2: -0.270221, -0.089275, -0.035320
f3: 0.264089, -0.127789, -0.000056
f4: -0.237025, 0.124710, 0.001661
Dihedral 0.906718 radians, 51.951165 shifted degrees
m_du_dphi -29765.799866
f1: 0.233217, -0.122707, -0.001635
f2: -0.271463, 0.153459, -0.036537
f3: 0.163821, -0.154207, 0.244808
f4: -0.125575, 0.123455, -0.206637
Dihedral 2.200159 radians, 126.059943 shifted degrees
m_du_dphi -72226.966071
f1: 0.125804, -0.123680, 0.207014
f2: -0.144137, -0.040449, -0.213136
f3: 0.009802, 0.490533, -0.049896
f4: 0.008530, -0.326403, 0.056017
Dihedral 3.158138 radians, -179.051890 shifted degrees
m_du_dphi 102589.263584
f1: -0.008431, 0.322582, -0.055361
f2: 0.006352, -0.163715, 0.022545
f3: 0.010782, -0.590187, 0.113719
f4: -0.008703, 0.431321, -0.080903
Dihedral 3.160562 radians, -178.912998 shifted degrees
m_du_dphi 102509.684448
f1: 0.008830, -0.437619, 0.082084
f2: -0.014711, 0.740122, -0.138058
f3: -0.000867, -0.039920, 0.001754
f4: 0.006747, -0.262583, 0.054220
Dihedral 1.779236 radians, 101.942812 shifted degrees
m_du_dphi -58408.879292
f1: -0.006774, 0.263641, -0.054438
f2: -0.095688, -0.273222, 0.105758
f3: 0.358306, -0.066509, -0.157575
f4: -0.255844, 0.076090, 0.106256
Dihedral 4.754579 radians, -87.582477 shifted degrees
m_du_dphi 50181.194690
f1: 0.257708, -0.076644, -0.107030
f2: -0.318136, 0.078956, 0.288717
f3: -0.026742, 0.055868, -0.468011
f4: 0.087170, -0.058180, 0.286323
Dihedral 4.030873 radians, -129.047781 shifted degrees
m_du_dphi 73939.043710
f1: -0.086310, 0.057605, -0.283496
f2: 0.183610, 0.007755, 0.330110
f3: -0.212019, -0.262785, 0.150597
f4: 0.114719, 0.197425, -0.197211
Dihedral 4.170521 radians, -121.046547 shifted degrees
m_du_dphi 69354.678091
f1: -0.040174, 0.011496, -0.291608
f2: 0.049721, -0.017307, 0.396881
f3: 0.224928, 0.074950, 0.004836
f4: -0.234475, -0.069139, -0.110109
Dihedral 0.961059 radians, 55.064671 shifted degrees
m_du_dphi -31549.705991
f1: 0.230678, 0.068020, 0.108326
f2: -0.246873, -0.060830, -0.112994
f3: 0.217024, -0.170291, 0.044398
f4: -0.200829, 0.163101, -0.039730
Dihedral 0.598333 radians, 34.281985 shifted degrees
m_du_dphi -19642.114189
f1: 0.205939, -0.167251, 0.040741
f2: -0.226812, 0.192266, -0.058317
f3: 0.130371, -0.199375, 0.181732
f4: -0.109497, 0.174360, -0.164156
Dihedral 2.273717 radians, 130.274479 shifted degrees
m_du_dphi -74641.714983
f1: 0.109183, -0.173861, 0.163686
f2: -0.130765, 0.018595, -0.175648
f3: 0.042462, 0.474960, 0.005313
f4: -0.020880, -0.319694, 0.006650
Dihedral 2.913441 radians, 166.927988 shifted degrees
m_du_dphi -95642.610987
f1: 0.020436, 0.312889, -0.006509
f2: -0.037253, -0.074799, 0.091318
f3: 0.023136, -0.726208, -0.180593
f4: -0.006319, 0.488118, 0.095783
Dihedral 3.508035 radians, -159.004220 shifted degrees
m_du_dphi 91102.804850
f1: 0.006344, -0.490027, -0.096158
f2: -0.004279, 0.820052, 0.190668
f3: -0.026678, -0.057367, -0.139979
f4: 0.024613, -0.272659, 0.045469
Dihedral 1.923592 radians, 110.213771 shifted degrees
m_du_dphi -63147.785742
f1: -0.024792, 0.274639, -0.045799
f2: -0.082755, -0.309869, 0.113364
f3: 0.366158, -0.068615, -0.189108
f4: -0.258611, 0.103845, 0.121542
Dihedral 4.616042 radians, -95.520029 shifted degrees
m_du_dphi 54729.072940
f1: 0.252905, -0.101554, -0.118861
f2: -0.297930, 0.098124, 0.328642
f3: -0.084677, 0.094016, -0.486457
f4: 0.129702, -0.090586, 0.276676
Dihedral 3.851704 radians, -139.313433 shifted degrees
m_du_dphi 79820.824086
f1: -0.131907, 0.092126, -0.281379
f2: 0.264353, 0.033522, 0.204868
f3: -0.215285, -0.363080, 0.385803
f4: 0.082839, 0.237433, -0.309292
Dihedral 3.875736 radians, -137.936495 shifted degrees
m_du_dphi 79031.897752
f1: -0.043123, -0.061041, -0.261311
f2: 0.041654, 0.066341, 0.310637
f3: 0.178009, 0.127143, 0.093659
f4: -0.176540, -0.132443, -0.142985
Dihedral 1.226466 radians, 70.271379 shifted degrees
m_du_dphi -40262.500202
f1: 0.178864, 0.134186, 0.144867
f2: -0.179695, -0.150359, -0.150631
f3: 0.206006, -0.145260, 0.068691
f4: -0.205175, 0.161432, -0.062928
Dihedral 0.410361 radians, 23.511979 shifted degrees
m_du_dphi -13471.360378
f1: 0.200782, -0.157976, 0.061580
f2: -0.214372, 0.179476, -0.084054
f3: 0.152324, -0.193322, 0.171159
f4: -0.138734, 0.171821, -0.148685
Dihedral 2.360124 radians, 135.225284 shifted degrees
m_du_dphi -77478.314946
f1: 0.141798, -0.175616, 0.151969
f2: -0.147216, 0.071681, -0.176957
f3: -0.034010, 0.395232, 0.024765
f4: 0.039428, -0.291296, 0.000223
Dihedral 3.284549 radians, -171.809062 shifted degrees
m_du_dphi 98439.432270
f1: -0.039529, 0.292045, -0.000223
f2: 0.034958, -0.116984, -0.039974
f3: 0.034481, -0.583709, 0.093726
f4: -0.029909, 0.408648, -0.053528
Dihedral 2.888419 radians, 165.494381 shifted degrees
m_du_dphi -94821.215503
f1: 0.029427, -0.402052, 0.052664
f2: -0.051614, 0.643005, -0.101931
f3: 0.019500, 0.034509, 0.081162
f4: 0.002687, -0.275461, -0.031895
Dihedral 1.993155 radians, 114.199467 shifted degrees
m_du_dphi -65431.419610
f1: -0.002671, 0.273819, 0.031705
f2: -0.059746, -0.318431, -0.000721
f3: 0.281145, -0.050896, -0.167307
f4: -0.218729, 0.095509, 0.136324
Dihedral 4.863051 radians, -81.367467 shifted degrees
m_du_dphi 46620.259460
f1: 0.222129, -0.096993, -0.138443
f2: -0.253301, 0.087466, 0.289563
f3: -0.042599, 0.096835, -0.418709
f4: 0.073771, -0.087308, 0.267589
Dihedral 3.818918 radians, -141.191931 shifted degrees
m_du_dphi 80897.123600
f1: -0.073646, 0.087160, -0.267135
f2: 0.154536, -0.018415, 0.256754
f3: -0.174438, -0.266659, 0.241093
f4: 0.093549, 0.197915, -0.230712
Dihedral 4.108459 radians, -124.602445 shifted degrees
m_du_dphi 71392.056181
f1: -0.039545, -0.072490, -0.276414
f2: -0.012977, 0.067932, 0.345768
f3: 0.285082, 0.110710, 0.032671
f4: -0.232561, -0.106152, -0.102025
Dihedral 1.157993 radians, 66.348151 shifted degrees
m_du_dphi -38014.658399
f1: 0.232373, 0.106066, 0.101942
f2: -0.309318, -0.127320, -0.132302
f3: 0.273206, -0.154278, 0.051526
f4: -0.196261, 0.175532, -0.021167
Dihedral 0.312691 radians, 17.915862 shifted degrees
m_du_dphi -10265.024001
f1: 0.196186, -0.175465, 0.021159
f2: -0.225318, 0.206914, -0.033335
f3: 0.192976, -0.224851, 0.108331
f4: -0.163845, 0.193402, -0.096154
Dihedral 2.462594 radians, 141.096352 shifted degrees
m_du_dphi -80842.186286
f1: 0.160541, -0.189502, 0.094215
f2: -0.161534, 0.090915, -0.111172
f3: -0.042150, 0.385266, 0.030333
f4: 0.043144, -0.286680, -0.013376
Dihedral 3.530281 radians, -157.729631 shifted degrees
m_du_dphi 90372.519502
f1: -0.043990, 0.292303, 0.013639
f2: 0.042141, -0.034704, -0.148647
f3: 0.025777, -0.713748, 0.291822
f4: -0.023928, 0.456149, -0.156813
Dihedral 2.981721 radians, 170.840186 shifted degrees
m_du_dphi -97884.133719
f1: 0.023693, -0.451670, 0.155273
f2: -0.043621, 0.781193, -0.276830
f3: 0.019813, -0.067293, 0.074130
f4: 0.000114, -0.262231, 0.047427
Dihedral 1.803171 radians, 103.314148 shifted degrees
m_du_dphi -59194.596251
f1: -0.000117, 0.267274, -0.048339
f2: -0.157816, -0.259613, 0.135651
f3: 0.433202, -0.107847, -0.223767
f4: -0.275269, 0.100185, 0.136455
Dihedral 4.545875 radians, -99.540304 shifted degrees
m_du_dphi 57032.519369
f1: 0.273160, -0.099418, -0.135409
f2: -0.368268, 0.086339, 0.335189
f3: -0.032409, 0.154418, -0.440369
f4: 0.127517, -0.141339, 0.240588
Dihedral 3.896239 radians, -136.761755 shifted degrees
m_du_dphi 78358.821437
f1: -0.126939, 0.140699, -0.239498
f2: 0.239934, -0.054250, 0.234859
f3: -0.192875, -0.345593, 0.211687
f4: 0.079880, 0.259143, -0.207048
Dihedral 4.371338 radians, -109.540542 shifted degrees
m_du_dphi 62762.228481
f1: -0.029286, -0.121756, -0.325180
f2: -0.019857, 0.179753, 0.526121
f3: 0.308503, 0.024204, -0.156253
f4: -0.259360, -0.082201, -0.044688
Dihedral 1.117654 radians, 64.036905 shifted degrees
m_du_dphi -36690.413078
f1: 0.260825, 0.082666, 0.044941
f2: -0.346579, -0.084919, -0.060111
f3: 0.266791, -0.193331, 0.050366
f4: -0.181037, 0.195584, -0.035196
Dihedral 0.393467 radians, 22.543998 shifted degrees
m_du_dphi -12916.748589
f1: 0.180087, -0.194559, 0.035011
f2: -0.229879, 0.255682, -0.068184
f3: 0.192128, -0.247653, 0.165806
f4: -0.142337, 0.186529, -0.132633
Dihedral 2.234633 radians, 128.035152 shifted degrees
m_du_dphi -73358.676519
f1: 0.144815, -0.189777, 0.134943
f2: -0.195471, 0.079274, -0.165198
f3: 0.089092, 0.411629, 0.032396
f4: -0.038436, -0.301126, -0.002140
Dihedral 2.612813 radians, 149.703265 shifted degrees
m_du_dphi -85773.579953
f1: 0.038501, 0.301631, 0.002144
f2: -0.047528, -0.169711, 0.162352
f3: -0.004129, -0.494228, -0.376315
f4: 0.013156, 0.362309, 0.211819
Dihedral 3.742689 radians, -145.559528 shifted degrees
m_du_dphi 83399.570183
f1: -0.013167, -0.362632, -0.212007
f2: 0.031388, 0.612433, 0.377904
f3: -0.079575, 0.006138, -0.169545
f4: 0.061354, -0.255939, 0.003649
Dihedral 2.052735 radians, 117.613143 shifted degrees
m_du_dphi -67387.310164
f1: -0.061643, 0.257146, -0.003666
f2: -0.057477, -0.247832, 0.073045
f3: 0.378748, -0.095788, -0.210216
f4: -0.259627, 0.086473, 0.140837
Dihedral 4.295097 radians, -113.908859 shifted degrees
m_du_dphi 65265.087757
f1: 0.254208, -0.084668, -0.137897
f2: -0.290384, 0.065337, 0.293908
f3: -0.162441, 0.152099, -0.337796
f4: 0.198617, -0.132768, 0.181786
Dihedral 3.915194 radians, -135.675690 shifted degrees
m_du_dphi 77736.552703
f1: -0.199654, 0.133461, -0.182734
f2: 0.288891, 0.007293, 0.131198
f3: -0.083696, -0.433733, 0.248893
f4: -0.005541, 0.292980, -0.197357
Dihedral 4.305089 radians, -113.336369 shifted degrees
m_du_dphi 64937.075409
f1: -0.087631, -0.075746, -0.277556
f2: 0.139004, 0.115012, 0.409144
f3: 0.199487, 0.048220, -0.120526
f4: -0.250861, -0.087487, -0.011062
Dihedral 1.008472 radians, 57.781264 shifted degrees
m_du_dphi -33106.197595
f1: 0.247990, 0.086486, 0.010935
f2: -0.256446, -0.068268, -0.014975
f3: 0.211531, -0.179259, 0.053168
f4: -0.203075, 0.161041, -0.049127
Dihedral 0.495196 radians, 28.372671 shifted degrees
m_du_dphi -16256.329379
f1: 0.205376, -0.162866, 0.049684
f2: -0.247360, 0.196658, -0.078903
f3: 0.199153, -0.161743, 0.193911
f4: -0.157169, 0.127951, -0.164692
Dihedral 2.219460 radians, 127.165812 shifted degrees
m_du_dphi -72860.581558
f1: 0.159874, -0.130153, 0.167526
f2: -0.191662, 0.021054, -0.155433
f3: 0.050783, 0.394033, -0.093235
f4: -0.018996, -0.284934, 0.081141
Dihedral 2.594373 radians, 148.646736 shifted degrees
m_du_dphi -85168.234149
f1: 0.018600, 0.278997, -0.079451
f2: -0.035922, -0.100976, 0.199642
f3: 0.028500, -0.579087, -0.227942
f4: -0.011178, 0.401066, 0.107751
Dihedral 3.596726 radians, -153.922604 shifted degrees
m_du_dphi 88191.255614
f1: 0.011154, -0.400230, -0.107526
f2: -0.012808, 0.682121, 0.194572
f3: -0.062361, -0.029042, -0.123021
f4: 0.064015, -0.252849, 0.035975
Dihedral 1.930781 radians, 110.625680 shifted degrees
m_du_dphi -63383.792422
f1: -0.064640, 0.255319, -0.036327
f2: -0.086916, -0.241359, 0.130207
f3: 0.429273, -0.086209, -0.251618
f4: -0.277717, 0.072248, 0.157738
Dihedral 4.356189 radians, -110.408551 shifted degrees
m_du_dphi 63259.560993
f1: 0.272751, -0.070956, -0.154917
f2: -0.352974, 0.064074, 0.323450
f3: -0.111975, 0.122637, -0.350717
f4: 0.192199, -0.115755, 0.182184
Dihedral 4.007775 radians, -130.371223 shifted degrees
m_du_dphi 74697.319647
f1: -0.194924, 0.117396, -0.184768
f2: 0.278852, -0.018160, 0.174764
f3: -0.091166, -0.369867, 0.167565
f4: 0.007238, 0.270631, -0.157562
Dihedral 4.367306 radians, -109.771562 shifted degrees
m_du_dphi 62894.593411
f1: -0.042059, -0.074307, -0.281829
f2: 0.039551, 0.092630, 0.404075
f3: 0.217435, 0.129236, -0.100764
f4: -0.214927, -0.147559, -0.021481
Dihedral 0.916605 radians, 52.517669 shifted degrees
m_du_dphi -30090.382474
f1: 0.220135, 0.151135, 0.022001
f2: -0.250742, -0.161948, -0.024920
f3: 0.283491, -0.072506, 0.024659
f4: -0.252884, 0.083319, -0.021740
Dihedral 0.717182 radians, 41.091528 shifted degrees
m_du_dphi -23543.691241
f1: 0.246694, -0.081280, 0.021208
f2: -0.268339, 0.089407, -0.034645
f3: 0.191435, -0.078955, 0.201166
f4: -0.169790, 0.070828, -0.187728
Dihedral 1.767305 radians, 101.259193 shifted degrees
m_du_dphi -58017.194764
f1: 0.172797, -0.072082, 0.191053
f2: -0.207501, -0.105960, -0.200656
f3: 0.076196, 0.499941, 0.004790
f4: -0.041491, -0.321898, 0.004813
Dihedral 2.904298 radians, 166.404185 shifted degrees
m_du_dphi -95342.494435
f1: 0.040969, 0.317848, -0.004752
f2: -0.041299, -0.211434, 0.072197
f3: -0.031060, -0.495387, -0.153769
f4: 0.031390, 0.388973, 0.086324
Dihedral 3.518777 radians, -158.388767 shifted degrees
m_du_dphi 90750.176312
f1: -0.031438, -0.389567, -0.086456
f2: 0.055249, 0.677457, 0.151384
f3: -0.051595, -0.024682, -0.094489
f4: 0.027784, -0.263208, 0.029561
Dihedral 1.866649 radians, 106.951209 shifted degrees
m_du_dphi -61278.477048
f1: -0.027671, 0.262136, -0.029441
f2: -0.049506, -0.242364, 0.069693
f3: 0.321466, -0.091912, -0.166019
f4: -0.244290, 0.072140, 0.125767
Dihedral 4.229038 radians, -117.693770 shifted degrees
m_du_dphi 67433.680028
f1: 0.241762, -0.071393, -0.124465
f2: -0.206197, 0.055028, 0.252284
f3: -0.270724, 0.097916, -0.308503
f4: 0.235160, -0.081551, 0.180684
Dihedral 4.017315 radians, -129.824635 shifted degrees
m_du_dphi 74384.148264
f1: -0.235150, 0.081548, -0.180677
f2: 0.336957, -0.000092, 0.163879
f3: -0.078476, -0.315076, 0.218261
f4: -0.023331, 0.233621, -0.201463
Dihedral 5.064149 radians, -69.845419 shifted degrees
m_du_dphi 40018.617571
f1: 0.270431, -0.113262, -0.295415
f2: -0.498118, 0.197283, 0.527533
f3: 0.462037, 0.024002, -0.186235
f4: -0.234350, -0.108023, -0.045883
Dihedral 1.003134 radians, 57.475412 shifted degrees
m_du_dphi -32930.957652
f1: 0.239503, 0.110398, 0.046892
f2: -0.259771, -0.111197, -0.054865
f3: 0.213634, -0.125868, 0.146961
f4: -0.193365, 0.126666, -0.138989
Dihedral 0.321347 radians, 18.411839 shifted degrees
m_du_dphi -10549.197745
f1: 0.187779, -0.123006, 0.134973
f2: -0.254225, 0.162573, -0.219626
f3: 0.224868, -0.132632, 0.298325
f4: -0.158422, 0.093065, -0.213672
Dihedral 1.845816 radians, 105.757539 shifted degrees
m_du_dphi -60594.555244
f1: 0.162430, -0.095419, 0.219078
f2: -0.259135, -0.094554, -0.282674
f3: 0.157991, 0.536012, 0.042789
f4: -0.061285, -0.346038, 0.020808
Dihedral 3.056852 radians, 175.144871 shifted degrees
m_du_dphi -100350.534606
f1: 0.060507, 0.341644, -0.020543
f2: -0.050814, -0.261464, 0.041734
f3: -0.075320, -0.484263, -0.031176
f4: 0.065626, 0.404084, 0.009986
Dihedral 3.571254 radians, -155.382054 shifted degrees
m_du_dphi 89027.457999
f1: -0.065571, -0.403745, -0.009978
f2: 0.114496, 0.723912, 0.012807
f3: -0.065932, -0.070465, -0.091873
f4: 0.017007, -0.249703, 0.089043
Dihedral 1.782386 radians, 102.123296 shifted degrees
m_du_dphi -58512.289179
f1: -0.017083, 0.250817, -0.089440
f2: -0.081511, -0.203492, 0.128483
f3: 0.347440, -0.134074, -0.150552
f4: -0.248847, 0.086749, 0.111509
Dihedral 4.183887 radians, -120.280747 shifted degrees
m_du_dphi 68915.907512
f1: 0.250520, -0.087333, -0.112259
f2: -0.240442, 0.094001, 0.237804
f3: -0.239588, 0.051524, -0.301377
f4: 0.229511, -0.058193, 0.175832
Dihedral 4.498326 radians, -102.264701 shifted degrees
m_du_dphi 58593.482408
f1: -0.231351, 0.058659, -0.177242
f2: 0.407214, 0.068443, 0.146506
f3: -0.291337, -0.382678, 0.216796
f4: 0.115474, 0.255576, -0.186061
Dihedral 4.687324 radians, -91.435882 shifted degrees
m_du_dphi 52389.031539
f1: 0.091906, -0.116616, -0.299657
f2: -0.162048, 0.175277, 0.474553
f3: 0.295954, 0.082330, -0.153037
f4: -0.225812, -0.140992, -0.021860
Dihedral 1.057432 radians, 60.586466 shifted degrees
m_du_dphi -34713.458661
f1: 0.223168, 0.139341, 0.021604
f2: -0.242973, -0.147540, -0.024778
f3: 0.237607, -0.108588, 0.100537
f4: -0.217802, 0.116786, -0.097362
Dihedral 0.584339 radians, 33.480174 shifted degrees
m_du_dphi -19182.710566
f1: 0.218484, -0.117152, 0.097667
f2: -0.234180, 0.124080, -0.117785
f3: 0.157241, -0.065437, 0.236446
f4: -0.141545, 0.058509, -0.216329
Dihedral 2.190132 radians, 125.485435 shifted degrees
m_du_dphi -71897.797458
f1: 0.142344, -0.058839, 0.217550
f2: -0.162339, -0.067853, -0.157044
f3: 0.036016, 0.392181, -0.219629
f4: -0.016022, -0.265488, 0.159123
Dihedral 2.732393 radians, 156.554727 shifted degrees
m_du_dphi -89699.175187
f1: 0.015796, 0.261752, -0.156884
f2: -0.041821, -0.105974, 0.194247
f3: 0.050023, -0.542254, 0.019651
f4: -0.023998, 0.386476, -0.057014
Dihedral 3.499895 radians, -159.470621 shifted degrees
m_du_dphi 91370.032200
f1: 0.024341, -0.392010, 0.057831
f2: -0.035108, 0.649102, -0.085500
f3: -0.046520, -0.024865, -0.091205
f4: 0.057287, -0.232227, 0.118874
Dihedral 1.901949 radians, 108.973765 shifted degrees
m_du_dphi -62437.315170
f1: -0.057065, 0.231326, -0.118412
f2: -0.146501, -0.173996, 0.222954
f3: 0.512194, -0.182800, -0.236583
f4: -0.308629, 0.125471, 0.132041
Dihedral 4.407100 radians, -107.491575 shifted degrees
m_du_dphi 61588.257883
f1: 0.310571, -0.126260, -0.132872
f2: -0.470682, 0.187150, 0.289491
f3: 0.002146, 0.016846, -0.372477
f4: 0.157965, -0.077736, 0.215858
Dihedral 4.090752 radians, -125.617000 shifted degrees
m_du_dphi 71973.352842
f1: -0.157269, 0.077394, -0.214907
f2: 0.225816, -0.003290, 0.211403
f3: -0.113917, -0.306336, 0.170893
f4: 0.045371, 0.232233, -0.167389
Dihedral 4.839490 radians, -82.717418 shifted degrees
m_du_dphi 47393.723379
f1: 0.169589, -0.094836, -0.338306
f2: -0.317295, 0.152849, 0.587396
f3: 0.372592, 0.077694, -0.213153
f4: -0.224886, -0.135707, -0.035938
Dihedral 1.010717 radians, 57.909881 shifted degrees
m_du_dphi -33179.889942
f1: 0.223452, 0.134842, 0.035708
f2: -0.271497, -0.133809, -0.050931
f3: 0.268356, -0.115252, 0.112534
f4: -0.220311, 0.114219, -0.097312
Dihedral 0.528650 radians, 30.289428 shifted degrees
m_du_dphi -17354.549025
f1: 0.219765, -0.113936, 0.097071
f2: -0.248096, 0.128700, -0.111103
f3: 0.170963, -0.095920, 0.221463
f4: -0.142632, 0.081157, -0.207430
Dihedral 2.185533 radians, 125.221915 shifted degrees
m_du_dphi -71746.811704
f1: 0.142682, -0.081185, 0.207502
f2: -0.151813, -0.070101, -0.141105
f3: 0.023399, 0.435698, -0.194597
f4: -0.014268, -0.284412, 0.128200
Dihedral 2.857310 radians, 163.711918 shifted degrees
m_du_dphi -93799.940517
f1: 0.014292, 0.284890, -0.128416
f2: -0.028251, -0.166538, 0.156698
f3: 0.022853, -0.497401, 0.028076
f4: -0.008894, 0.379049, -0.056359
Dihedral 3.437269 radians, -163.058821 shifted degrees
m_du_dphi 93425.917694
f1: 0.008816, -0.375763, 0.055870
f2: -0.011571, 0.628710, -0.087942
f3: -0.042234, -0.010178, -0.072432
f4: 0.044988, -0.242769, 0.104504
Dihedral 1.666336 radians, 95.474083 shifted degrees
m_du_dphi -54702.573672
f1: -0.044840, 0.241972, -0.104161
f2: -0.102614, -0.230344, 0.206332
f3: 0.418634, -0.067880, -0.270295
f4: -0.271180, 0.056252, 0.168124
Dihedral 4.384415 radians, -108.791298 shifted degrees
m_du_dphi 62332.943742
f1: 0.269926, -0.055992, -0.167347
f2: -0.294001, 0.052362, 0.372105
f3: -0.210412, 0.068100, -0.407863
f4: 0.234487, -0.064471, 0.203105
Dihedral 4.509938 radians, -101.599377 shifted degrees
m_du_dphi 58212.280179
f1: -0.236198, 0.064941, -0.204587
f2: 0.422630, 0.024497, 0.235166
f3: -0.300317, -0.326869, 0.120814
f4: 0.113885, 0.237430, -0.151393
Dihedral 5.113430 radians, -67.021772 shifted degrees
m_du_dphi 38400.788636
f1: 0.248074, -0.083134, -0.275732
f2: -0.486951, 0.110958, 0.466615
f3: 0.474631, 0.097410, -0.161088
f4: -0.235753, -0.125234, -0.029795
Dihedral 0.840166 radians, 48.137984 shifted degrees
m_du_dphi -27581.009980
f1: 0.237207, 0.126006, 0.029979
f2: -0.318644, -0.149997, -0.044866
f3: 0.319655, -0.062775, 0.095856
f4: -0.238218, 0.086766, -0.080969
Dihedral 0.603237 radians, 34.562978 shifted degrees
m_du_dphi -19803.110986
f1: 0.233525, -0.085056, 0.079374
f2: -0.269788, 0.097703, -0.106262
f3: 0.190181, -0.062660, 0.235820
f4: -0.153917, 0.050014, -0.208931
Dihedral 1.863966 radians, 106.797471 shifted degrees
m_du_dphi -61190.391594
f1: 0.155004, -0.050367, 0.210407
f2: -0.180637, -0.052551, -0.206605
f3: 0.055522, 0.384339, -0.064238
f4: -0.029889, -0.281420, 0.060436
Dihedral 3.280106 radians, -172.063598 shifted degrees
m_du_dphi 98585.270779
f1: 0.029482, 0.277585, -0.059612
f2: -0.013637, -0.231923, 0.028936
f3: -0.067064, -0.334565, 0.131696
f4: 0.051219, 0.288903, -0.101021
Dihedral 3.244405 radians, -174.109101 shifted degrees
m_du_dphi 99757.256857
f1: -0.051876, -0.292609, 0.102317
f2: 0.077895, 0.436691, -0.151816
f3: 0.003618, 0.098278, -0.059957
f4: -0.029637, -0.242360, 0.109456
Dihedral 1.649174 radians, 94.490770 shifted degrees
m_du_dphi -54139.177376
f1: 0.029195, 0.238740, -0.107822
f2: -0.138232, -0.195732, 0.171589
f3: 0.348950, -0.158074, -0.196661
f4: -0.239912, 0.115066, 0.132894
Dihedral 4.448134 radians, -105.140488 shifted degrees
m_du_dphi 60241.185626
f1: 0.241209, -0.115689, -0.133612
f2: -0.279500, 0.140830, 0.275801
f3: -0.141013, 0.043273, -0.356819
f4: 0.179305, -0.068414, 0.214631
Dihedral 4.259333 radians, -115.958014 shifted degrees
m_du_dphi 66439.166104
f1: -0.179465, 0.068475, -0.214823
f2: 0.292388, 0.014889, 0.209135
f3: -0.202882, -0.308204, 0.186700
f4: 0.089958, 0.224840, -0.181013
Dihedral 4.686721 radians, -91.470415 shifted degrees
m_du_dphi 52408.817106
f1: 0.171366, -0.125242, -0.380724
f2: -0.335056, 0.207931, 0.678924
f3: 0.378964, 0.062067, -0.241118
f4: -0.215274, -0.144756, -0.057082
Dihedral 0.907000 radians, 51.967303 shifted degrees
m_du_dphi -29775.046111
f1: 0.219286, 0.147454, 0.058146
f2: -0.259544, -0.159654, -0.071684
f3: 0.270141, -0.070395, 0.120160
f4: -0.229883, 0.082595, -0.106622
Dihedral 0.616454 radians, 35.320236 shifted degrees
m_du_dphi -20236.987401
f1: 0.227903, -0.081883, 0.105703
f2: -0.259945, 0.093831, -0.143516
f3: 0.159025, -0.060732, 0.263224
f4: -0.126983, 0.048784, -0.225411
Dihedral 1.510512 radians, 86.546059 shifted degrees
m_du_dphi -49587.197083
f1: 0.129482, -0.049744, 0.229846
f2: -0.194920, -0.131341, -0.287510
f3: 0.147817, 0.501366, 0.104071
f4: -0.082380, -0.320281, -0.046407
Dihedral 3.189933 radians, -177.230166 shifted degrees
m_du_dphi 101545.493477
f1: 0.080444, 0.312757, 0.045317
f2: -0.064490, -0.268756, -0.049903
f3: -0.110800, -0.386598, -0.029156
f4: 0.094846, 0.342598, 0.033741
Dihedral 3.841779 radians, -139.882105 shifted degrees
m_du_dphi 80146.649108
f1: -0.096490, -0.348537, -0.034326
f2: 0.160303, 0.589080, 0.052249
f3: -0.076275, -0.014344, -0.151452
f4: 0.012462, -0.226200, 0.133530
Dihedral 1.509961 radians, 86.514485 shifted degrees
m_du_dphi -49569.106446
f1: -0.012452, 0.226026, -0.133427
f2: -0.150794, -0.193577, 0.206235
f3: 0.453756, -0.075402, -0.211572
f4: -0.290510, 0.042953, 0.138764
Dihedral 4.272739 radians, -115.189889 shifted degrees
m_du_dphi 65999.063299
f1: 0.285908, -0.042273, -0.136566
f2: -0.269283, 0.030460, 0.368376
f3: -0.284160, 0.065118, -0.456391
f4: 0.267535, -0.053305, 0.224581
Dihedral 4.491911 radians, -102.632246 shifted degrees
m_du_dphi 58804.070008
f1: -0.272044, 0.054203, -0.228365
f2: 0.504218, 0.011542, 0.289435
f3: -0.341413, -0.274138, 0.122228
f4: 0.109240, 0.208392, -0.183298
Dihedral 4.553018 radians, -99.131084 shifted degrees
m_du_dphi 56798.053359
f1: 0.075998, -0.093996, -0.307926
f2: -0.170318, 0.111340, 0.483842
f3: 0.302286, 0.153228, -0.130142
f4: -0.207965, -0.170572, -0.045774
Dihedral 0.934038 radians, 53.516471 shifted degrees
m_du_dphi -30662.653052
f1: 0.207866, 0.170490, 0.045752
f2: -0.257822, -0.209660, -0.056759
f3: 0.300313, -0.028755, 0.067849
f4: -0.250357, 0.067925, -0.056842
Dihedral 0.769520 radians, 44.090281 shifted degrees
m_du_dphi -25261.848860
f1: 0.250186, -0.067879, 0.056803
f2: -0.256833, 0.070083, -0.065124
f3: 0.143080, -0.050158, 0.225412
f4: -0.136433, 0.047954, -0.217091
Dihedral 1.612931 radians, 92.414202 shifted degrees
m_du_dphi -52949.392894
f1: 0.138985, -0.048851, 0.221152
f2: -0.183049, -0.143414, -0.237166
f3: 0.109527, 0.516524, 0.029744
f4: -0.065462, -0.324258, -0.013730
Dihedral 3.082113 radians, 176.592199 shifted degrees
m_du_dphi -90176.174057
f1: 0.064732, 0.320643, 0.013577
f2: -0.061229, -0.279019, 0.001770
f3: -0.067094, -0.392418, -0.050239
f4: 0.063591, 0.350793, 0.034892
Dihedral 3.932507 radians, -134.683738 shifted degrees
m_du_dphi 77168.206562
f1: -0.063627, -0.350991, -0.034912
f2: 0.108979, 0.579054, 0.065173
f3: -0.095750, -0.014746, -0.177356
f4: 0.050398, -0.213317, 0.147095
Dihedral 1.428600 radians, 81.852834 shifted degrees
m_du_dphi -46898.179858
f1: -0.050353, 0.213129, -0.146965
f2: -0.112424, -0.218125, 0.267909
f3: 0.435145, -0.002621, -0.309593
f4: -0.272367, 0.007617, 0.188649
Dihedral 4.423826 radians, -106.533214 shifted degrees
m_du_dphi 61039.158178
f1: 0.272417, -0.007618, -0.188683
f2: -0.248616, 0.001069, 0.454792
f3: -0.309534, 0.023442, -0.495843
f4: 0.285733, -0.016893, 0.229734
Dihedral 4.757564 radians, -87.411454 shifted degrees
m_du_dphi 50083.205623
f1: -0.278898, 0.016489, -0.224238
f2: 0.532403, 0.061015, 0.320461
f3: -0.394749, -0.286672, 0.043264
f4: 0.141244, 0.209169, -0.139487
      19    491900.74            0            0            0            0    491900.74    115484.94            0 
Loop time of 0.0342841 on 1 procs for 20 steps with 12 atoms

Performance: 50.402 ns/day, 0.476 hours/ns, 583.361 timesteps/s
26.2% CPU use with 1 MPI tasks x no OpenMP threads

MPI task timing breakdown:
Section |  min time  |  avg time  |  max time  |%varavg| %total
---------------------------------------------------------------
Pair    | 0          | 0          | 0          |   0.0 |  0.00
Bond    | 0          | 0          | 0          |   0.0 |  0.00
Neigh   | 0          | 0          | 0          |   0.0 |  0.00
Comm    | 0          | 0          | 0          |   0.0 |  0.00
Output  | 0          | 0          | 0          |   0.0 |  0.00
Modify  | 0          | 0          | 0          |   0.0 |  0.00
Other   |            | 0.03428    |            |       |100.00

Nlocal:    12 ave 12 max 12 min
Histogram: 1 0 0 0 0 0 0 0 0 0
Nghost:    72 ave 72 max 72 min
Histogram: 1 0 0 0 0 0 0 0 0 0
Neighs:    26 ave 26 max 26 min
Histogram: 1 0 0 0 0 0 0 0 0 0

Total # of neighbors = 26
Ave neighs/atom = 2.16667
Ave special neighs/atom = 5
Neighbor list builds = 0
Dangerous builds = 0
Total wall time: 0:00:00
