#LAMMPS data file for simple dihedral test

4 atoms
3 bonds
2 angles
1 dihedrals
0 impropers

1	atom types
1	bond types
1	angle types
1	dihedral types

-20.0	20.0	xlo xhi
-20.0	20.0 	ylo yhi
-20.0	20.0	zlo zhi

Masses

1	1.0

Atoms

1	1	1	0.0 0.0	-1.0	0.0
2	1	1	0.0 0.0	-0.0	0.0
3	1	1	0.0 0.0	1.0	0.0
4	1	1	0.0 0.0	2.0	0.0

Bonds

1	1	1	2
2	1	2	3
3	1	3	4

Angles

1	1	1	2	3
2	1	2	3	4

Dihedrals

1	1	1	2	3	4



