LAMMPS data file. CGCMM style. atom_style full generated by VMD/TopoTools v1.6 on Thu Sep 22 11:22:55 CDT 2016
 1000 atoms
 0 bonds
 0 angles
 0 dihedrals
 0 impropers
 1 atom types
 0 bond types
 0 angle types
 0 dihedral types
 0 improper types
 -27.681600 27.681600  xlo xhi
 -27.681600 27.681600  ylo yhi
 -27.681600 27.681600  zlo zhi

# Pair Coeffs
#
# 1  1

 Masses

 1 12.000000 # 1

 Atoms

1 1 1 0.000000 -7.096010 21.592600 6.834870 # 1 UNK
2 1 1 0.000000 11.880400 -13.160800 27.015400 # 1 UNK
3 1 1 0.000000 6.654440 26.374300 22.093901 # 1 UNK
4 1 1 0.000000 -19.778799 -0.130855 12.679900 # 1 UNK
5 1 1 0.000000 -19.902201 -7.217400 -10.695300 # 1 UNK
6 1 1 0.000000 17.230200 27.594801 -9.233110 # 1 UNK
7 1 1 0.000000 21.492500 -5.775550 16.620100 # 1 UNK
8 1 1 0.000000 20.641701 21.941500 -26.783600 # 1 UNK
9 1 1 0.000000 -15.669700 -9.154670 13.655100 # 1 UNK
10 1 1 0.000000 22.331600 27.128300 13.536100 # 1 UNK
11 1 1 0.000000 13.764700 -18.091000 15.434700 # 1 UNK
12 1 1 0.000000 -10.375200 9.205480 -20.547600 # 1 UNK
13 1 1 0.000000 7.106810 27.002501 11.026300 # 1 UNK
14 1 1 0.000000 9.677750 -17.683800 -8.286900 # 1 UNK
15 1 1 0.000000 -18.694000 -27.363199 -3.541590 # 1 UNK
16 1 1 0.000000 -3.960790 26.327999 -5.744140 # 1 UNK
17 1 1 0.000000 -0.104386 -6.439770 -3.923070 # 1 UNK
18 1 1 0.000000 -26.924999 0.202697 -20.137600 # 1 UNK
19 1 1 0.000000 -19.072901 -12.461300 23.026600 # 1 UNK
20 1 1 0.000000 -25.007700 3.357320 13.473200 # 1 UNK
21 1 1 0.000000 25.865101 2.535860 -10.850900 # 1 UNK
22 1 1 0.000000 9.897640 -5.159710 -14.844200 # 1 UNK
23 1 1 0.000000 -21.174000 -4.670180 16.122299 # 1 UNK
24 1 1 0.000000 21.743700 15.599500 -10.308600 # 1 UNK
25 1 1 0.000000 27.377800 -17.422501 -6.378450 # 1 UNK
26 1 1 0.000000 5.221700 4.768660 27.453400 # 1 UNK
27 1 1 0.000000 -13.045300 -15.392100 -8.682210 # 1 UNK
28 1 1 0.000000 14.850400 -26.124701 -26.807501 # 1 UNK
29 1 1 0.000000 11.605200 -9.445020 -19.003901 # 1 UNK
30 1 1 0.000000 13.996400 15.902500 -17.005899 # 1 UNK
31 1 1 0.000000 -11.164500 7.463730 2.705870 # 1 UNK
32 1 1 0.000000 -23.468901 -9.329710 13.391600 # 1 UNK
33 1 1 0.000000 9.624540 17.100000 11.823400 # 1 UNK
34 1 1 0.000000 -13.585700 -9.142780 21.290400 # 1 UNK
35 1 1 0.000000 -0.182607 -27.213100 12.516200 # 1 UNK
36 1 1 0.000000 7.239720 -21.663500 -11.053500 # 1 UNK
37 1 1 0.000000 -21.747200 -25.233999 21.343599 # 1 UNK
38 1 1 0.000000 -8.383250 -22.150900 -19.483999 # 1 UNK
39 1 1 0.000000 9.168930 9.351020 -7.117210 # 1 UNK
40 1 1 0.000000 -27.103500 3.436450 3.696030 # 1 UNK
41 1 1 0.000000 1.210590 24.180799 5.272280 # 1 UNK
42 1 1 0.000000 -26.050100 19.604601 -5.139910 # 1 UNK
43 1 1 0.000000 -7.428780 -24.342100 1.605150 # 1 UNK
44 1 1 0.000000 -10.472500 24.425301 14.470100 # 1 UNK
45 1 1 0.000000 2.289700 -12.693400 -24.681801 # 1 UNK
46 1 1 0.000000 -18.887899 7.318950 23.588600 # 1 UNK
47 1 1 0.000000 22.375900 -16.415899 13.706200 # 1 UNK
48 1 1 0.000000 -22.728500 20.476700 -10.611300 # 1 UNK
49 1 1 0.000000 14.916300 25.896000 21.131500 # 1 UNK
50 1 1 0.000000 -25.022301 12.277200 19.166201 # 1 UNK
51 1 1 0.000000 -26.431900 20.707001 19.050900 # 1 UNK
52 1 1 0.000000 8.181100 24.366100 -6.957420 # 1 UNK
53 1 1 0.000000 -4.673330 16.350000 -16.213699 # 1 UNK
54 1 1 0.000000 25.173000 -5.324210 25.577400 # 1 UNK
55 1 1 0.000000 15.457100 17.105801 17.564899 # 1 UNK
56 1 1 0.000000 24.620001 -23.699600 8.238880 # 1 UNK
57 1 1 0.000000 -1.629290 14.748100 25.794701 # 1 UNK
58 1 1 0.000000 -0.234378 11.940200 1.875230 # 1 UNK
59 1 1 0.000000 -9.151890 5.504850 19.438700 # 1 UNK
60 1 1 0.000000 -2.456570 19.242800 12.812400 # 1 UNK
61 1 1 0.000000 5.767100 -21.368099 3.920580 # 1 UNK
62 1 1 0.000000 3.511160 -20.447300 -0.706140 # 1 UNK
63 1 1 0.000000 9.087470 25.496901 0.184501 # 1 UNK
64 1 1 0.000000 -16.166599 -22.417900 13.465800 # 1 UNK
65 1 1 0.000000 12.951200 22.345900 -2.036140 # 1 UNK
66 1 1 0.000000 19.517700 -25.751801 21.550200 # 1 UNK
67 1 1 0.000000 18.273600 -10.713300 7.568100 # 1 UNK
68 1 1 0.000000 -16.289400 -21.423500 -5.255080 # 1 UNK
69 1 1 0.000000 -15.137200 17.896200 26.227900 # 1 UNK
70 1 1 0.000000 4.336950 -20.074800 -18.051399 # 1 UNK
71 1 1 0.000000 2.136390 9.184200 17.695101 # 1 UNK
72 1 1 0.000000 -19.823999 24.788500 8.139350 # 1 UNK
73 1 1 0.000000 -18.521000 -1.169930 -1.729140 # 1 UNK
74 1 1 0.000000 23.917400 3.224790 -4.772030 # 1 UNK
75 1 1 0.000000 10.491000 10.466700 -22.101900 # 1 UNK
76 1 1 0.000000 1.216180 2.240450 18.445801 # 1 UNK
77 1 1 0.000000 -7.781980 -25.564600 -7.786790 # 1 UNK
78 1 1 0.000000 -4.693490 -18.439800 8.276190 # 1 UNK
79 1 1 0.000000 26.492901 -3.789380 20.390699 # 1 UNK
80 1 1 0.000000 27.359501 8.507280 -12.936600 # 1 UNK
81 1 1 0.000000 -4.365580 16.252800 6.296960 # 1 UNK
82 1 1 0.000000 17.666401 -5.293820 5.297920 # 1 UNK
83 1 1 0.000000 -0.640847 -23.582199 6.868340 # 1 UNK
84 1 1 0.000000 -4.860400 2.973050 17.980801 # 1 UNK
85 1 1 0.000000 27.541401 -19.001801 11.910200 # 1 UNK
86 1 1 0.000000 -8.030200 13.705100 -23.074699 # 1 UNK
87 1 1 0.000000 -19.698601 9.815680 -12.335500 # 1 UNK
88 1 1 0.000000 15.192700 21.345600 -15.869900 # 1 UNK
89 1 1 0.000000 24.992701 -13.100700 9.874170 # 1 UNK
90 1 1 0.000000 -15.475400 5.064030 10.009300 # 1 UNK
91 1 1 0.000000 4.343320 26.428801 15.994200 # 1 UNK
92 1 1 0.000000 6.263560 -8.172760 -4.210910 # 1 UNK
93 1 1 0.000000 -18.392700 -8.549210 18.218000 # 1 UNK
94 1 1 0.000000 -11.778300 -3.970310 24.301800 # 1 UNK
95 1 1 0.000000 -19.896500 10.612400 2.933270 # 1 UNK
96 1 1 0.000000 -23.685101 9.802450 23.703501 # 1 UNK
97 1 1 0.000000 -27.217899 23.689400 -9.657450 # 1 UNK
98 1 1 0.000000 -19.061300 -17.396000 -12.452000 # 1 UNK
99 1 1 0.000000 3.395220 -17.825600 -13.332600 # 1 UNK
100 1 1 0.000000 -1.975600 -11.705900 -17.946899 # 1 UNK
101 1 1 0.000000 -9.662080 16.667400 19.886101 # 1 UNK
102 1 1 0.000000 1.742850 -20.733700 -8.953180 # 1 UNK
103 1 1 0.000000 21.090700 -4.668600 10.070800 # 1 UNK
104 1 1 0.000000 11.535400 6.681980 25.074400 # 1 UNK
105 1 1 0.000000 12.176500 25.257999 -17.086201 # 1 UNK
106 1 1 0.000000 -19.742201 -15.737000 -22.635401 # 1 UNK
107 1 1 0.000000 -2.467470 22.555201 -9.597770 # 1 UNK
108 1 1 0.000000 -25.952101 22.571501 10.641900 # 1 UNK
109 1 1 0.000000 -2.608210 20.974001 6.538770 # 1 UNK
110 1 1 0.000000 -13.167300 14.685000 -5.479880 # 1 UNK
111 1 1 0.000000 2.935090 0.289036 -4.717690 # 1 UNK
112 1 1 0.000000 27.013700 -24.117001 -25.956400 # 1 UNK
113 1 1 0.000000 15.178400 -7.218220 -15.908000 # 1 UNK
114 1 1 0.000000 -8.856250 0.518325 8.374160 # 1 UNK
115 1 1 0.000000 8.970980 -4.495140 7.281060 # 1 UNK
116 1 1 0.000000 17.137899 19.356501 -10.663300 # 1 UNK
117 1 1 0.000000 2.145960 3.894140 -23.197701 # 1 UNK
118 1 1 0.000000 -12.414300 -15.155100 -3.042150 # 1 UNK
119 1 1 0.000000 -19.374901 -26.800100 16.712200 # 1 UNK
120 1 1 0.000000 -6.682280 21.592199 0.611399 # 1 UNK
121 1 1 0.000000 11.644700 25.824600 25.711201 # 1 UNK
122 1 1 0.000000 -24.448700 7.777720 -9.302140 # 1 UNK
123 1 1 0.000000 3.547340 -23.478500 13.344700 # 1 UNK
124 1 1 0.000000 10.673400 -10.876900 -1.249680 # 1 UNK
125 1 1 0.000000 -0.857824 -19.615200 -4.109180 # 1 UNK
126 1 1 0.000000 11.726500 20.842199 15.396500 # 1 UNK
127 1 1 0.000000 -23.539700 -7.800230 -25.381300 # 1 UNK
128 1 1 0.000000 -10.146200 -27.594000 9.827750 # 1 UNK
129 1 1 0.000000 8.688170 2.967530 10.767300 # 1 UNK
130 1 1 0.000000 -7.184160 5.625860 -16.952200 # 1 UNK
131 1 1 0.000000 16.153700 5.130770 25.728399 # 1 UNK
132 1 1 0.000000 2.694170 5.930150 21.761400 # 1 UNK
133 1 1 0.000000 5.954580 21.526600 2.342810 # 1 UNK
134 1 1 0.000000 0.697361 -25.441299 -21.144199 # 1 UNK
135 1 1 0.000000 -19.153299 -18.973101 -17.183100 # 1 UNK
136 1 1 0.000000 -8.570850 22.414801 -6.888830 # 1 UNK
137 1 1 0.000000 -22.054399 5.394400 5.089210 # 1 UNK
138 1 1 0.000000 -10.956600 6.388050 14.442800 # 1 UNK
139 1 1 0.000000 13.161500 -15.838400 -3.762770 # 1 UNK
140 1 1 0.000000 -1.922030 16.504200 -11.519900 # 1 UNK
141 1 1 0.000000 -3.396240 -15.549900 14.356800 # 1 UNK
142 1 1 0.000000 5.345920 22.865000 24.924400 # 1 UNK
143 1 1 0.000000 0.556948 -6.590770 -14.414900 # 1 UNK
144 1 1 0.000000 -18.622400 15.704100 -17.549900 # 1 UNK
145 1 1 0.000000 0.476262 19.412701 -15.289500 # 1 UNK
146 1 1 0.000000 25.528999 21.766899 -14.787200 # 1 UNK
147 1 1 0.000000 1.288410 15.942200 -19.109100 # 1 UNK
148 1 1 0.000000 5.626530 5.725750 15.265000 # 1 UNK
149 1 1 0.000000 -18.526800 3.788020 -0.662003 # 1 UNK
150 1 1 0.000000 17.292900 -1.912010 -21.747900 # 1 UNK
151 1 1 0.000000 -10.438800 -20.735300 -8.060620 # 1 UNK
152 1 1 0.000000 -9.228800 17.267799 2.947590 # 1 UNK
153 1 1 0.000000 -11.428900 11.390300 20.003201 # 1 UNK
154 1 1 0.000000 17.333799 14.714400 -21.911501 # 1 UNK
155 1 1 0.000000 -12.782400 4.167960 -8.356880 # 1 UNK
156 1 1 0.000000 -12.019600 -22.060600 -23.084499 # 1 UNK
157 1 1 0.000000 -26.426500 -25.370600 -20.222300 # 1 UNK
158 1 1 0.000000 6.239830 -9.205470 -16.972000 # 1 UNK
159 1 1 0.000000 6.811400 19.053499 -9.829010 # 1 UNK
160 1 1 0.000000 25.200199 19.523899 8.263840 # 1 UNK
161 1 1 0.000000 8.485400 -18.634701 13.136600 # 1 UNK
162 1 1 0.000000 7.682100 13.068400 -18.744200 # 1 UNK
163 1 1 0.000000 25.785700 -14.028100 -25.054199 # 1 UNK
164 1 1 0.000000 -13.447400 -26.011400 -26.815901 # 1 UNK
165 1 1 0.000000 5.456750 -5.035810 22.086300 # 1 UNK
166 1 1 0.000000 26.851101 18.690399 -0.713507 # 1 UNK
167 1 1 0.000000 -26.150200 13.644700 9.335990 # 1 UNK
168 1 1 0.000000 11.394300 20.902700 24.330400 # 1 UNK
169 1 1 0.000000 -17.222601 10.418400 8.028480 # 1 UNK
170 1 1 0.000000 3.837260 -16.922100 -5.256970 # 1 UNK
171 1 1 0.000000 24.191299 15.737500 -14.413000 # 1 UNK
172 1 1 0.000000 -5.403820 23.226700 -23.731199 # 1 UNK
173 1 1 0.000000 -22.633400 -0.299609 7.106770 # 1 UNK
174 1 1 0.000000 -11.032100 3.629010 -0.520167 # 1 UNK
175 1 1 0.000000 -0.301257 -1.215030 5.220160 # 1 UNK
176 1 1 0.000000 -17.200100 -23.828699 -13.037100 # 1 UNK
177 1 1 0.000000 3.174820 -24.072800 18.581900 # 1 UNK
178 1 1 0.000000 22.256500 -11.827700 -21.214001 # 1 UNK
179 1 1 0.000000 6.093250 -7.409850 -22.559099 # 1 UNK
180 1 1 0.000000 -3.326840 25.330500 2.559850 # 1 UNK
181 1 1 0.000000 -7.586010 -17.179501 -4.754450 # 1 UNK
182 1 1 0.000000 21.038500 -5.970250 -12.608400 # 1 UNK
183 1 1 0.000000 21.786800 9.680760 -2.715980 # 1 UNK
184 1 1 0.000000 -13.941300 2.406010 23.913099 # 1 UNK
185 1 1 0.000000 -18.291100 -7.772760 -4.085260 # 1 UNK
186 1 1 0.000000 18.416401 -0.957127 -6.991200 # 1 UNK
187 1 1 0.000000 7.756000 -10.067700 26.526899 # 1 UNK
188 1 1 0.000000 -3.449990 -22.988899 -19.088499 # 1 UNK
189 1 1 0.000000 3.241620 -1.411830 -27.430901 # 1 UNK
190 1 1 0.000000 8.380360 0.678105 4.858700 # 1 UNK
191 1 1 0.000000 0.050801 7.464400 11.305700 # 1 UNK
192 1 1 0.000000 24.495100 -0.895409 5.579910 # 1 UNK
193 1 1 0.000000 -13.335500 22.596901 -10.320200 # 1 UNK
194 1 1 0.000000 20.561199 6.602850 -14.971300 # 1 UNK
195 1 1 0.000000 -17.177099 24.517500 15.636000 # 1 UNK
196 1 1 0.000000 -16.955099 -7.004400 9.070780 # 1 UNK
197 1 1 0.000000 -8.140140 -15.091700 14.430800 # 1 UNK
198 1 1 0.000000 -19.709499 2.344960 23.107000 # 1 UNK
199 1 1 0.000000 21.164400 -14.030500 -4.849890 # 1 UNK
200 1 1 0.000000 21.505699 10.189400 -27.410000 # 1 UNK
201 1 1 0.000000 8.295720 14.859900 15.780600 # 1 UNK
202 1 1 0.000000 -8.175210 27.341801 -17.061300 # 1 UNK
203 1 1 0.000000 20.499701 -23.852301 -8.772860 # 1 UNK
204 1 1 0.000000 15.771800 -0.103469 -1.931240 # 1 UNK
205 1 1 0.000000 21.492201 12.386800 15.307800 # 1 UNK
206 1 1 0.000000 -3.268060 26.912600 7.841020 # 1 UNK
207 1 1 0.000000 3.669090 15.441700 -11.010800 # 1 UNK
208 1 1 0.000000 -2.658500 -6.878260 -19.886900 # 1 UNK
209 1 1 0.000000 -7.488950 -11.568600 -3.219700 # 1 UNK
210 1 1 0.000000 8.661280 -2.597740 -26.664200 # 1 UNK
211 1 1 0.000000 11.590500 1.912130 -12.976900 # 1 UNK
212 1 1 0.000000 -2.157860 -9.851950 0.062539 # 1 UNK
213 1 1 0.000000 10.833400 16.512501 -23.860201 # 1 UNK
214 1 1 0.000000 -0.756032 -3.826800 -9.497090 # 1 UNK
215 1 1 0.000000 14.066800 -24.325500 -13.609100 # 1 UNK
216 1 1 0.000000 14.607100 8.010200 -12.606600 # 1 UNK
217 1 1 0.000000 -22.828300 -3.124440 -22.119400 # 1 UNK
218 1 1 0.000000 24.848700 17.084700 -20.210300 # 1 UNK
219 1 1 0.000000 17.327200 -16.128901 9.478370 # 1 UNK
220 1 1 0.000000 4.519610 -19.338600 8.741470 # 1 UNK
221 1 1 0.000000 3.813360 -9.968890 18.260300 # 1 UNK
222 1 1 0.000000 -8.584060 26.719801 -1.197370 # 1 UNK
223 1 1 0.000000 15.329800 11.800300 -24.812401 # 1 UNK
224 1 1 0.000000 17.231300 11.038300 24.875500 # 1 UNK
225 1 1 0.000000 -19.992800 11.171700 -21.381399 # 1 UNK
226 1 1 0.000000 25.879801 -6.432110 -23.414200 # 1 UNK
227 1 1 0.000000 -25.509001 -0.222496 16.928400 # 1 UNK
228 1 1 0.000000 17.476299 6.763630 -24.470301 # 1 UNK
229 1 1 0.000000 -25.254999 3.147910 -1.210360 # 1 UNK
230 1 1 0.000000 12.191600 -3.115810 19.567101 # 1 UNK
231 1 1 0.000000 2.981380 -23.291800 -26.351200 # 1 UNK
232 1 1 0.000000 -22.690201 -24.566601 -10.481900 # 1 UNK
233 1 1 0.000000 -1.223780 12.413100 -14.976200 # 1 UNK
234 1 1 0.000000 15.391600 -19.284300 -18.514601 # 1 UNK
235 1 1 0.000000 23.728800 -20.495800 -4.327500 # 1 UNK
236 1 1 0.000000 18.928400 -19.319000 -2.338740 # 1 UNK
237 1 1 0.000000 15.798700 15.356500 1.845280 # 1 UNK
238 1 1 0.000000 -13.374300 20.699600 -19.611200 # 1 UNK
239 1 1 0.000000 17.160400 10.576100 -8.585780 # 1 UNK
240 1 1 0.000000 -20.098499 15.882900 -12.128100 # 1 UNK
241 1 1 0.000000 -4.292590 11.712500 23.466400 # 1 UNK
242 1 1 0.000000 -24.885201 -19.002600 -25.550699 # 1 UNK
243 1 1 0.000000 -14.429900 26.185699 6.041350 # 1 UNK
244 1 1 0.000000 5.656860 -8.132350 -11.002900 # 1 UNK
245 1 1 0.000000 -25.384600 9.153030 -23.081499 # 1 UNK
246 1 1 0.000000 10.402000 16.830900 20.402300 # 1 UNK
247 1 1 0.000000 5.035320 18.298300 -23.004999 # 1 UNK
248 1 1 0.000000 8.934000 -2.012840 -11.272300 # 1 UNK
249 1 1 0.000000 26.151501 14.814300 4.091980 # 1 UNK
250 1 1 0.000000 -20.672400 20.179100 10.512000 # 1 UNK
251 1 1 0.000000 9.781670 -5.851850 -8.108850 # 1 UNK
252 1 1 0.000000 -6.191140 10.437800 3.070140 # 1 UNK
253 1 1 0.000000 -7.027890 -10.718300 -20.512800 # 1 UNK
254 1 1 0.000000 25.109600 -14.751000 19.021799 # 1 UNK
255 1 1 0.000000 -2.268690 -22.639099 16.341101 # 1 UNK
256 1 1 0.000000 -8.429590 -11.919200 -10.158200 # 1 UNK
257 1 1 0.000000 -4.307990 23.833900 22.206400 # 1 UNK
258 1 1 0.000000 -4.770230 -24.321100 11.981700 # 1 UNK
259 1 1 0.000000 -11.110100 18.533400 -25.013700 # 1 UNK
260 1 1 0.000000 -27.514000 23.436501 -19.518000 # 1 UNK
261 1 1 0.000000 -18.701700 22.668800 -9.270720 # 1 UNK
262 1 1 0.000000 17.063299 13.771700 -4.953860 # 1 UNK
263 1 1 0.000000 -17.413200 14.477800 -1.229660 # 1 UNK
264 1 1 0.000000 -2.189820 12.626300 11.518700 # 1 UNK
265 1 1 0.000000 5.320760 21.507500 12.514900 # 1 UNK
266 1 1 0.000000 -7.917470 -27.316000 -22.371300 # 1 UNK
267 1 1 0.000000 -9.331240 11.209900 12.826600 # 1 UNK
268 1 1 0.000000 -21.421000 -19.362400 11.682600 # 1 UNK
269 1 1 0.000000 -27.073601 -11.961100 -8.932610 # 1 UNK
270 1 1 0.000000 16.723101 19.724400 -21.145100 # 1 UNK
271 1 1 0.000000 4.696440 -26.364401 0.432877 # 1 UNK
272 1 1 0.000000 1.171760 11.175800 6.563860 # 1 UNK
273 1 1 0.000000 10.723700 -16.096001 20.148199 # 1 UNK
274 1 1 0.000000 -13.036600 -18.226000 16.549200 # 1 UNK
275 1 1 0.000000 -0.913942 -11.325000 16.035299 # 1 UNK
276 1 1 0.000000 -2.261270 -9.410550 -24.774500 # 1 UNK
277 1 1 0.000000 9.154230 17.450300 -16.003799 # 1 UNK
278 1 1 0.000000 -3.175940 -22.290400 -9.366210 # 1 UNK
279 1 1 0.000000 7.567520 24.973600 -13.645400 # 1 UNK
280 1 1 0.000000 -17.443100 16.941900 -7.206850 # 1 UNK
281 1 1 0.000000 -18.657499 -20.898199 23.439301 # 1 UNK
282 1 1 0.000000 -2.815680 -14.034000 5.286810 # 1 UNK
283 1 1 0.000000 -26.261400 -8.096230 3.427140 # 1 UNK
284 1 1 0.000000 4.594690 -0.777944 9.302380 # 1 UNK
285 1 1 0.000000 -4.539580 -15.959400 24.897100 # 1 UNK
286 1 1 0.000000 14.337800 27.448099 -4.410980 # 1 UNK
287 1 1 0.000000 -22.591299 10.335600 -2.407810 # 1 UNK
288 1 1 0.000000 24.919100 22.209000 -6.036990 # 1 UNK
289 1 1 0.000000 -7.876500 -23.197100 -26.884100 # 1 UNK
290 1 1 0.000000 13.538300 18.361900 5.192960 # 1 UNK
291 1 1 0.000000 -23.290501 -13.591300 -12.389300 # 1 UNK
292 1 1 0.000000 12.831300 -1.681570 8.337970 # 1 UNK
293 1 1 0.000000 17.236700 -27.052401 -16.833599 # 1 UNK
294 1 1 0.000000 21.006001 -23.500601 4.408590 # 1 UNK
295 1 1 0.000000 -18.001101 -17.708700 19.426901 # 1 UNK
296 1 1 0.000000 -10.212400 8.042290 -25.764799 # 1 UNK
297 1 1 0.000000 -2.609040 -22.341499 -26.443399 # 1 UNK
298 1 1 0.000000 -26.240400 15.959900 23.529200 # 1 UNK
299 1 1 0.000000 -27.650299 -25.204700 -11.296300 # 1 UNK
300 1 1 0.000000 26.703199 -17.126400 -21.312500 # 1 UNK
301 1 1 0.000000 -0.194862 3.932480 -18.844200 # 1 UNK
302 1 1 0.000000 7.664110 -13.807400 -23.019899 # 1 UNK
303 1 1 0.000000 22.973801 15.496100 -5.241180 # 1 UNK
304 1 1 0.000000 14.551500 20.110300 11.272100 # 1 UNK
305 1 1 0.000000 -9.686850 -17.683001 9.766600 # 1 UNK
306 1 1 0.000000 19.892500 25.016899 -5.920780 # 1 UNK
307 1 1 0.000000 13.615000 9.786030 2.382200 # 1 UNK
308 1 1 0.000000 -23.583500 5.807940 -18.890499 # 1 UNK
309 1 1 0.000000 -8.700400 -2.478610 -3.217190 # 1 UNK
310 1 1 0.000000 -6.002190 -2.285610 -16.391399 # 1 UNK
311 1 1 0.000000 3.043880 6.036850 -15.166800 # 1 UNK
312 1 1 0.000000 20.436001 10.078500 -21.807899 # 1 UNK
313 1 1 0.000000 -11.631300 13.766700 0.045877 # 1 UNK
314 1 1 0.000000 8.867890 7.268850 -12.736800 # 1 UNK
315 1 1 0.000000 17.868000 22.228300 1.669340 # 1 UNK
316 1 1 0.000000 -17.065800 -23.049200 -18.926701 # 1 UNK
317 1 1 0.000000 0.555442 13.134000 21.283199 # 1 UNK
318 1 1 0.000000 -12.005300 24.551100 -15.318200 # 1 UNK
319 1 1 0.000000 24.098000 -1.253210 12.570700 # 1 UNK
320 1 1 0.000000 -2.792670 -19.416300 -14.449000 # 1 UNK
321 1 1 0.000000 10.768000 5.018760 -18.590300 # 1 UNK
322 1 1 0.000000 21.373199 16.150499 -0.221910 # 1 UNK
323 1 1 0.000000 -9.435840 -13.394000 -16.271400 # 1 UNK
324 1 1 0.000000 17.850401 7.709570 7.880850 # 1 UNK
325 1 1 0.000000 12.230200 -24.450399 0.890346 # 1 UNK
326 1 1 0.000000 -20.409901 -24.761801 2.222810 # 1 UNK
327 1 1 0.000000 -17.821899 -21.141701 -24.280500 # 1 UNK
328 1 1 0.000000 -27.004499 -22.083500 -1.088690 # 1 UNK
329 1 1 0.000000 -12.752400 -17.464300 -21.031601 # 1 UNK
330 1 1 0.000000 -14.225900 26.143200 20.384800 # 1 UNK
331 1 1 0.000000 21.985500 -18.708099 8.561930 # 1 UNK
332 1 1 0.000000 -18.405300 -9.666560 -25.678200 # 1 UNK
333 1 1 0.000000 -18.176901 -17.108400 -5.576120 # 1 UNK
334 1 1 0.000000 -6.271340 3.202710 5.351520 # 1 UNK
335 1 1 0.000000 25.549999 18.847401 26.613600 # 1 UNK
336 1 1 0.000000 27.358101 7.515950 -5.716700 # 1 UNK
337 1 1 0.000000 -14.803500 0.644818 -21.023399 # 1 UNK
338 1 1 0.000000 21.492901 1.186290 23.444401 # 1 UNK
339 1 1 0.000000 19.929399 -23.446699 -24.968800 # 1 UNK
340 1 1 0.000000 15.743100 -14.899000 23.752501 # 1 UNK
341 1 1 0.000000 -15.480700 -25.608200 1.367420 # 1 UNK
342 1 1 0.000000 13.216300 -0.654603 -17.594700 # 1 UNK
343 1 1 0.000000 18.631901 26.803499 26.386900 # 1 UNK
344 1 1 0.000000 1.915680 17.107599 10.044600 # 1 UNK
345 1 1 0.000000 -2.255810 -15.952400 -20.099800 # 1 UNK
346 1 1 0.000000 25.483900 -8.834750 19.542400 # 1 UNK
347 1 1 0.000000 5.191000 9.251450 8.730610 # 1 UNK
348 1 1 0.000000 6.284280 -11.164100 7.345650 # 1 UNK
349 1 1 0.000000 -1.256470 -12.677700 10.487000 # 1 UNK
350 1 1 0.000000 -17.244699 20.475700 -14.075900 # 1 UNK
351 1 1 0.000000 16.076700 -4.409160 27.544399 # 1 UNK
352 1 1 0.000000 -17.386801 -27.244600 -24.904301 # 1 UNK
353 1 1 0.000000 12.073800 -4.960100 2.883440 # 1 UNK
354 1 1 0.000000 20.606400 -8.639730 -17.211201 # 1 UNK
355 1 1 0.000000 -22.968700 10.321100 12.161900 # 1 UNK
356 1 1 0.000000 -19.480400 14.687200 10.031600 # 1 UNK
357 1 1 0.000000 -7.546530 18.227900 10.749700 # 1 UNK
358 1 1 0.000000 -19.313101 -2.440780 20.523399 # 1 UNK
359 1 1 0.000000 -0.127381 -7.211170 20.785700 # 1 UNK
360 1 1 0.000000 23.753300 -21.092600 17.437500 # 1 UNK
361 1 1 0.000000 -25.947500 2.248630 -7.227340 # 1 UNK
362 1 1 0.000000 17.938999 -20.871099 15.849300 # 1 UNK
363 1 1 0.000000 -7.624330 -22.698900 7.436810 # 1 UNK
364 1 1 0.000000 -8.275430 -5.577160 -20.367800 # 1 UNK
365 1 1 0.000000 1.000790 -4.764770 11.135900 # 1 UNK
366 1 1 0.000000 -11.826800 18.139000 -9.633910 # 1 UNK
367 1 1 0.000000 23.043200 -19.052999 -26.704100 # 1 UNK
368 1 1 0.000000 -21.851500 24.119900 -22.295500 # 1 UNK
369 1 1 0.000000 1.169990 -17.954599 17.577900 # 1 UNK
370 1 1 0.000000 -16.134800 -23.106600 19.194000 # 1 UNK
371 1 1 0.000000 6.899500 2.670730 -16.651300 # 1 UNK
372 1 1 0.000000 23.709801 -8.264320 7.171050 # 1 UNK
373 1 1 0.000000 -17.343700 -3.478320 -19.905199 # 1 UNK
374 1 1 0.000000 -23.286301 15.648800 -0.656410 # 1 UNK
375 1 1 0.000000 -11.342600 -8.916280 -14.814600 # 1 UNK
376 1 1 0.000000 -10.758100 9.549440 -14.710400 # 1 UNK
377 1 1 0.000000 26.225500 25.795401 -1.708380 # 1 UNK
378 1 1 0.000000 23.369101 -10.686000 24.608999 # 1 UNK
379 1 1 0.000000 -24.098200 -11.670700 18.897800 # 1 UNK
380 1 1 0.000000 -9.275350 -0.748077 21.071600 # 1 UNK
381 1 1 0.000000 -0.432545 12.172600 -6.576210 # 1 UNK
382 1 1 0.000000 -5.467130 4.698670 -23.460800 # 1 UNK
383 1 1 0.000000 -16.246000 6.188650 2.983860 # 1 UNK
384 1 1 0.000000 -13.990600 -7.173410 -0.229796 # 1 UNK
385 1 1 0.000000 -8.961620 -16.897499 20.667400 # 1 UNK
386 1 1 0.000000 -15.468000 9.050870 -0.932519 # 1 UNK
387 1 1 0.000000 12.322500 8.439670 8.132220 # 1 UNK
388 1 1 0.000000 -18.208200 4.367690 -15.897800 # 1 UNK
389 1 1 0.000000 -23.650200 -16.709600 -16.847401 # 1 UNK
390 1 1 0.000000 6.340520 1.968250 -22.118601 # 1 UNK
391 1 1 0.000000 7.757120 3.168740 22.279900 # 1 UNK
392 1 1 0.000000 21.956900 3.989820 -25.220900 # 1 UNK
393 1 1 0.000000 22.141199 18.769600 4.202810 # 1 UNK
394 1 1 0.000000 1.434540 -4.212060 -22.899500 # 1 UNK
395 1 1 0.000000 3.188000 -11.641000 -0.870143 # 1 UNK
396 1 1 0.000000 22.073500 22.016399 -20.421600 # 1 UNK
397 1 1 0.000000 23.189699 12.282200 -17.619301 # 1 UNK
398 1 1 0.000000 13.477100 -10.766300 5.303750 # 1 UNK
399 1 1 0.000000 15.992900 -8.188680 1.013010 # 1 UNK
400 1 1 0.000000 2.997370 22.727900 -11.546400 # 1 UNK
401 1 1 0.000000 -26.601400 -12.904600 2.933230 # 1 UNK
402 1 1 0.000000 -5.724330 -22.506500 -3.418080 # 1 UNK
403 1 1 0.000000 -8.539940 5.338910 25.284901 # 1 UNK
404 1 1 0.000000 -26.516399 3.814200 -15.866000 # 1 UNK
405 1 1 0.000000 15.108500 -3.541160 -12.548100 # 1 UNK
406 1 1 0.000000 -13.934800 25.706200 -0.785048 # 1 UNK
407 1 1 0.000000 1.381980 -13.732400 24.405001 # 1 UNK
408 1 1 0.000000 -24.862400 21.016899 23.914400 # 1 UNK
409 1 1 0.000000 -20.342699 -7.988080 -19.802299 # 1 UNK
410 1 1 0.000000 -7.850440 -2.250380 2.703590 # 1 UNK
411 1 1 0.000000 -24.373600 -26.492800 -1.870420 # 1 UNK
412 1 1 0.000000 -13.571000 -23.952000 9.325770 # 1 UNK
413 1 1 0.000000 11.750600 -15.435500 -16.314199 # 1 UNK
414 1 1 0.000000 -10.549900 17.716600 -15.309400 # 1 UNK
415 1 1 0.000000 26.856600 -10.442200 -19.293900 # 1 UNK
416 1 1 0.000000 1.808760 23.175100 -0.283678 # 1 UNK
417 1 1 0.000000 27.319700 -4.493340 6.667290 # 1 UNK
418 1 1 0.000000 -17.073601 -13.261800 -2.968960 # 1 UNK
419 1 1 0.000000 -22.468599 -12.060900 -0.122403 # 1 UNK
420 1 1 0.000000 -12.987100 -2.700160 0.901449 # 1 UNK
421 1 1 0.000000 19.429001 -18.759600 -8.292730 # 1 UNK
422 1 1 0.000000 5.118710 -15.890900 1.523460 # 1 UNK
423 1 1 0.000000 14.326900 2.675320 19.950399 # 1 UNK
424 1 1 0.000000 14.247000 3.871750 9.941810 # 1 UNK
425 1 1 0.000000 22.517200 -22.397499 12.753900 # 1 UNK
426 1 1 0.000000 11.704300 13.377300 -2.348050 # 1 UNK
427 1 1 0.000000 -0.116951 -26.842800 25.517900 # 1 UNK
428 1 1 0.000000 2.813010 9.636090 -3.122140 # 1 UNK
429 1 1 0.000000 17.843000 -1.734860 20.841900 # 1 UNK
430 1 1 0.000000 -25.652500 -4.228540 12.776600 # 1 UNK
431 1 1 0.000000 -12.766500 -12.334300 8.548530 # 1 UNK
432 1 1 0.000000 -15.071400 -17.236900 11.903600 # 1 UNK
433 1 1 0.000000 7.535450 -9.787400 12.029900 # 1 UNK
434 1 1 0.000000 -4.772280 -3.311690 9.193230 # 1 UNK
435 1 1 0.000000 15.756800 8.007420 20.317900 # 1 UNK
436 1 1 0.000000 12.023600 12.971000 26.169600 # 1 UNK
437 1 1 0.000000 -14.531500 15.707400 -22.261299 # 1 UNK
438 1 1 0.000000 22.972401 27.614300 18.820700 # 1 UNK
439 1 1 0.000000 -20.422600 -13.511500 11.133200 # 1 UNK
440 1 1 0.000000 -9.927750 -6.180360 9.618950 # 1 UNK
441 1 1 0.000000 19.184000 -12.305100 19.551600 # 1 UNK
442 1 1 0.000000 -14.296500 15.082200 9.456530 # 1 UNK
443 1 1 0.000000 -12.704800 14.247600 -17.924900 # 1 UNK
444 1 1 0.000000 -26.632601 -3.864620 -27.130301 # 1 UNK
445 1 1 0.000000 0.542820 24.834801 21.848400 # 1 UNK
446 1 1 0.000000 12.249400 0.773284 -7.150150 # 1 UNK
447 1 1 0.000000 22.954500 25.917101 -10.684700 # 1 UNK
448 1 1 0.000000 12.854600 25.644699 -11.119600 # 1 UNK
449 1 1 0.000000 -1.580390 2.618300 -7.478160 # 1 UNK
450 1 1 0.000000 4.934390 -3.488370 -17.780001 # 1 UNK
451 1 1 0.000000 16.995501 -11.223500 -27.098600 # 1 UNK
452 1 1 0.000000 -0.298672 2.704320 26.209900 # 1 UNK
453 1 1 0.000000 -13.388600 -22.779699 4.625720 # 1 UNK
454 1 1 0.000000 -27.267300 -12.300800 24.278200 # 1 UNK
455 1 1 0.000000 -23.692801 4.868700 26.905100 # 1 UNK
456 1 1 0.000000 -0.592813 5.930980 -3.298630 # 1 UNK
457 1 1 0.000000 17.792801 24.554800 12.516300 # 1 UNK
458 1 1 0.000000 9.055250 5.669450 5.463770 # 1 UNK
459 1 1 0.000000 -13.085500 -3.157010 -17.242901 # 1 UNK
460 1 1 0.000000 -3.516820 -26.460600 -23.587900 # 1 UNK
461 1 1 0.000000 24.178101 -8.719130 -7.089870 # 1 UNK
462 1 1 0.000000 -21.695299 23.721701 20.560900 # 1 UNK
463 1 1 0.000000 12.069000 -23.883301 -18.230101 # 1 UNK
464 1 1 0.000000 26.632200 15.936000 19.228701 # 1 UNK
465 1 1 0.000000 11.631700 -18.447500 25.752899 # 1 UNK
466 1 1 0.000000 -8.841300 0.810020 -13.097100 # 1 UNK
467 1 1 0.000000 -2.807410 7.634790 20.069099 # 1 UNK
468 1 1 0.000000 -7.402830 13.004900 -3.956430 # 1 UNK
469 1 1 0.000000 -7.770760 16.922100 25.872499 # 1 UNK
470 1 1 0.000000 2.396350 -11.795200 4.404720 # 1 UNK
471 1 1 0.000000 8.776130 -19.820601 -16.131901 # 1 UNK
472 1 1 0.000000 -21.883301 21.744600 -3.954640 # 1 UNK
473 1 1 0.000000 19.586399 -2.241250 -17.081100 # 1 UNK
474 1 1 0.000000 5.320050 -16.409800 21.040300 # 1 UNK
475 1 1 0.000000 1.152230 -23.606001 -14.481700 # 1 UNK
476 1 1 0.000000 -12.885900 19.672600 5.834060 # 1 UNK
477 1 1 0.000000 20.324699 2.948080 -20.649300 # 1 UNK
478 1 1 0.000000 20.325399 -25.049500 -13.985900 # 1 UNK
479 1 1 0.000000 10.508400 10.583400 -15.734700 # 1 UNK
480 1 1 0.000000 -14.399600 -14.839000 23.135500 # 1 UNK
481 1 1 0.000000 2.412290 26.920099 -14.929500 # 1 UNK
482 1 1 0.000000 25.359400 -21.845301 -15.730200 # 1 UNK
483 1 1 0.000000 24.248100 -14.689900 5.572930 # 1 UNK
484 1 1 0.000000 -4.248090 -14.476100 -13.412500 # 1 UNK
485 1 1 0.000000 21.311001 -14.807400 -15.381100 # 1 UNK
486 1 1 0.000000 12.618800 -4.719350 -23.503700 # 1 UNK
487 1 1 0.000000 17.915199 -14.460600 14.781300 # 1 UNK
488 1 1 0.000000 -27.345900 -3.942230 -8.753790 # 1 UNK
489 1 1 0.000000 18.967400 11.412500 1.408930 # 1 UNK
490 1 1 0.000000 8.085820 -8.509000 2.365520 # 1 UNK
491 1 1 0.000000 -13.979700 -15.736300 -15.670200 # 1 UNK
492 1 1 0.000000 -2.652040 -13.507200 -4.315430 # 1 UNK
493 1 1 0.000000 23.751801 26.618401 -24.493000 # 1 UNK
494 1 1 0.000000 1.746710 20.345699 17.444000 # 1 UNK
495 1 1 0.000000 3.804310 -6.414790 0.524370 # 1 UNK
496 1 1 0.000000 5.923930 -27.627001 -9.513730 # 1 UNK
497 1 1 0.000000 9.277340 26.333300 -24.135700 # 1 UNK
498 1 1 0.000000 -3.583240 5.632150 24.397499 # 1 UNK
499 1 1 0.000000 -19.398600 -13.267000 16.076799 # 1 UNK
500 1 1 0.000000 15.372500 -10.709700 -4.046030 # 1 UNK
501 1 1 0.000000 -21.969299 4.438880 -11.663600 # 1 UNK
502 1 1 0.000000 -17.445000 -19.396500 0.403520 # 1 UNK
503 1 1 0.000000 -11.658200 -27.111900 16.854401 # 1 UNK
504 1 1 0.000000 -0.653532 -25.299900 -3.176650 # 1 UNK
505 1 1 0.000000 4.584140 -23.663601 -5.488390 # 1 UNK
506 1 1 0.000000 -11.431700 -25.819000 -12.918100 # 1 UNK
507 1 1 0.000000 6.058260 10.196200 22.896299 # 1 UNK
508 1 1 0.000000 9.340000 11.634600 19.584000 # 1 UNK
509 1 1 0.000000 -6.109500 12.115500 17.529200 # 1 UNK
510 1 1 0.000000 4.476800 25.462999 -21.956699 # 1 UNK
511 1 1 0.000000 -15.316400 5.423230 19.032499 # 1 UNK
512 1 1 0.000000 -19.952101 -14.697000 2.766620 # 1 UNK
513 1 1 0.000000 8.963440 8.599360 -26.750200 # 1 UNK
514 1 1 0.000000 -3.853190 21.239201 26.771601 # 1 UNK
515 1 1 0.000000 -1.366350 7.274920 -11.432200 # 1 UNK
516 1 1 0.000000 15.649300 16.581301 22.869101 # 1 UNK
517 1 1 0.000000 7.844410 3.941100 -7.224590 # 1 UNK
518 1 1 0.000000 -18.248400 -0.533377 -15.344000 # 1 UNK
519 1 1 0.000000 -8.359900 -20.811100 17.854900 # 1 UNK
520 1 1 0.000000 8.344990 -16.629400 -2.072920 # 1 UNK
521 1 1 0.000000 19.084400 -20.550699 24.286301 # 1 UNK
522 1 1 0.000000 -26.574200 -27.474100 19.057699 # 1 UNK
523 1 1 0.000000 -14.009000 -3.057960 -4.478860 # 1 UNK
524 1 1 0.000000 8.426850 -13.870200 14.945100 # 1 UNK
525 1 1 0.000000 17.091101 -10.791200 -12.915500 # 1 UNK
526 1 1 0.000000 -2.066430 16.792700 -6.864560 # 1 UNK
527 1 1 0.000000 1.929060 0.664429 13.555100 # 1 UNK
528 1 1 0.000000 -24.028099 -7.601580 22.693300 # 1 UNK
529 1 1 0.000000 -13.028800 3.681320 -15.301000 # 1 UNK
530 1 1 0.000000 18.925200 3.574600 12.141900 # 1 UNK
531 1 1 0.000000 -9.582680 26.209700 21.627800 # 1 UNK
532 1 1 0.000000 -18.453600 -12.662000 -9.189440 # 1 UNK
533 1 1 0.000000 -0.493380 -15.049900 -8.918560 # 1 UNK
534 1 1 0.000000 18.204599 6.012900 1.795170 # 1 UNK
535 1 1 0.000000 27.273399 12.881600 -7.462060 # 1 UNK