ITEM: TIMESTEP
1000000
ITEM: NUMBER OF ATOMS
1000
ITEM: BOX BOUNDS pp pp pp
-5.60385 5.60385
-5.60385 5.60385
-5.60385 5.50385
ITEM: ATOMS id x y z fx fy fz 
1 0.938385 1.52788 5.17553 -0.6562 22.9669 29.4578 
2 -2.85016 4.43049 0.930776 11.5156 6.52314 -4.47217 
3 -2.66544 4.92834 4.27937 4.33299 1.02721 5.27549 
4 -2.79077 -1.89139 -0.911006 -11.2243 8.00496 -2.10311 
5 -1.27086 4.33321 2.4213 -35.1794 49.77 -20.1295 
6 -4.77209 -3.97162 5.00341 6.05906 -0.724037 9.26718 
7 2.66219 5.49682 -2.25103 6.61055 1.88799 0.938406 
8 1.59125 -1.04451 -4.48618 9.64248 -5.11731 6.62203 
9 3.86563 1.0358 -4.0906 -5.64248 25.8258 4.86707 
10 4.10531 3.11782 -3.70721 -9.90577 40.7778 7.76839 
11 -1.95155 -4.8284 -5.25927 7.64206 -28.4637 -34.0683 
12 2.65073 1.42031 1.19861 -0.172451 -1.71901 -0.965937 
13 4.61712 -3.32415 2.54218 9.46113 -0.813719 21.7923 
14 2.56897 3.45418 -2.96248 18.3895 -23.0667 -18.302 
15 3.61407 -2.13989 -1.0416 -0.358855 0.256288 1.9771 
16 3.63133 1.94722 5.03531 -8.75503 -19.767 6.25952 
17 -4.90289 -0.399511 -5.16229 5.32971 -19.1008 8.03224 
18 0.130243 -3.76306 -3.95914 -5.08118 7.46531 -5.34283 
19 -4.13069 -1.34632 -5.03215 -2.20793 -1.35032 1.44227 
20 3.18543 0.294926 -3.90914 -2.63479 0.336116 12.7882 
21 -3.79486 -0.201358 3.18027 -10.1349 8.71279 -20.434 
22 -1.98142 -2.7572 -1.98474 -5.58902 -10.0692 -12.167 
23 -1.87063 -0.498399 -1.46405 0.997884 8.57113 2.31037 
24 2.06296 4.1576 -2.49886 -6.29044 27.2843 21.8207 
25 1.77509 1.70645 -3.74255 -3.8268 -0.311859 -1.17797 
26 1.99461 -2.98066 3.99074 5.85872 -1.33727 24.994 
27 3.90145 0.980672 -5.53882 -3.91084 -11.8133 -7.99321 
28 3.21663 2.79821 -2.28957 -23.4994 28.3366 35.7444 
29 -3.16999 4.55778 -1.00401 -4.6805 -10.6828 -9.28339 
30 -5.35161 -4.63694 -5.49692 -2.70202 0.497618 4.71318 
31 -5.10553 -1.09234 -2.443 8.92983 1.94172 -17.236 
32 1.46829 3.40177 -5.2873 13.5943 -23.1934 -18.8029 
33 -1.58577 2.73875 -3.37067 -22.7677 18.3783 -29.8292 
34 -0.492969 1.87261 0.37548 -0.143578 0.693276 0.327873 
35 2.75917 5.08346 -3.74304 5.43859 -6.49212 3.08087 
36 -5.23485 5.59248 -0.244977 1.92463 11.1456 16.4946 
37 -4.00469 -4.18386 -1.76745 10.0584 12.2264 3.12313 
38 -3.7468 3.25442 3.71879 44.99 26.1552 28.8882 
39 -4.65563 -5.43361 0.952517 17.1882 4.10331 -8.38926 
40 -4.0592 1.26332 -1.34489 -6.99162 1.50154 0.711557 
41 4.77873 3.27444 4.80295 12.8271 2.98969 -0.335154 
42 -3.05156 0.612202 -4.70475 -0.267787 -30.7176 12.3954 
43 5.14628 0.998215 4.81836 1.68211 0.78779 2.41753 
44 1.52824 -2.49726 1.03055 0.930308 -1.31953 -1.61184 
45 2.0129 -0.606338 -5.45875 2.27357 10.4224 12.2211 
46 -2.3106 -3.99361 -4.81564 -11.3209 11.4324 16.3564 
47 0.301941 -1.2578 -2.60888 -0.225636 0.334895 -0.790075 
48 -5.50891 4.35754 -1.74103 -3.50372 0.905272 34.5563 
49 -1.48709 -0.818848 -4.21381 -0.00202009 -1.55214 3.98143 
50 -1.36836 4.24264 0.157392 -22.1198 -4.82405 10.1402 
51 -3.51403 0.277545 2.09297 3.21248 -11.2741 1.27131 
52 0.612358 -0.623196 -1.63091 4.31807 -10.2196 10.7626 
53 -0.751059 -3.18114 0.072835 -8.42992 -11.2022 5.66661 
54 1.39596 -2.18268 5.10263 7.64712 8.33179 -9.01556 
55 -0.1914 -4.81017 -4.13488 9.55447 -9.9487 -33.265 
56 2.18943 -5.25948 -3.12905 -1.14971 3.88291 -4.18875 
57 -2.86983 -4.02264 -3.1946 -3.25359 14.2322 1.11317 
58 -3.29045 2.41609 1.69402 -30.4605 7.62803 -3.0864 
59 1.04322 -4.20435 -1.19787 -18.7241 14.9665 -14.0758 
60 -1.06553 1.53871 1.87717 6.1353 19.3753 -1.60326 
61 4.40276 -3.63107 4.20021 -8.08132 3.68098 0.719404 
62 -5.19339 2.54018 3.25178 -5.2735 9.54145 -6.74272 
63 -1.78987 0.2854 3.54926 -2.63021 -7.01389 -6.55469 
64 3.50009 -5.46373 5.27923 5.36471 3.99285 -1.88431 
65 4.45044 1.7309 1.01609 3.32508 2.63277 3.01376 
66 5.37729 -1.49906 -5.32784 -5.10966 7.73045 3.37435 
67 0.48271 -2.44343 -2.93763 -18.7359 -5.08652 -9.23115 
68 -4.90419 -4.87289 2.16963 12.2993 57.0652 8.38035 
69 -4.52202 3.61448 3.23595 -58.2663 -12.9419 -5.55004 
70 4.98321 1.21987 -4.89874 6.64627 -4.82628 1.00837 
71 -4.0417 4.97733 -4.41237 -7.76958 6.4035 -0.708151 
72 2.9888 0.455462 -4.90095 -7.55699 9.06988 -18.9017 
73 1.31643 -2.95743 -2.5405 10.6689 -14.7066 21.1488 
74 -4.75868 -3.91687 1.40146 -1.58939 1.57029 1.63018 
75 1.04235 -2.73101 -0.147103 11.185 16.5002 -1.38647 
76 1.52353 -5.16637 3.13099 3.04005 -9.34913 14.3606 
77 0.608396 3.00987 -2.67829 -6.5518 -12.6718 -3.34711 
78 1.69171 -2.00505 -3.62415 -1.86583 0.467249 2.57716 
79 1.85481 2.78969 1.88525 -12.9379 -6.88245 5.68821 
80 0.322154 4.09915 -0.479672 13.7839 -3.72343 -10.5963 
81 4.85189 5.58527 -4.84941 -4.26973 1.6854 4.51026 
82 -1.07885 4.08973 -3.5349 2.52623 -0.957478 1.02252 
83 2.20169 0.578486 -3.09853 -1.95265 0.0905648 -11.5927 
84 -5.30506 3.22505 2.19832 -6.56096 4.34751 1.43557 
85 1.09487 4.17732 -4.80824 -6.03231 14.626 20.6669 
86 3.05525 3.29191 4.00876 9.8514 -26.2786 -8.04904 
87 1.01969 4.56238 -1.32434 2.85042 -7.43115 -2.58962 
88 2.3075 4.61168 0.333601 9.18779 3.36917 0.586113 
89 -1.23564 5.3836 -0.576661 7.91519 -5.63022 -10.7282 
90 -2.67445 2.20978 -3.16811 15.3043 45.3466 28.3213 
91 0.939034 -0.333427 -4.89552 7.69995 9.99176 -7.00085 
92 4.21362 -0.724572 0.549985 11.1148 2.14351 -5.65724 
93 -4.3323 -5.15038 -4.17659 11.4714 -3.71814 12.3472 
94 3.80793 4.15337 -1.64916 -21.5273 -17.5301 -56.9585 
95 -1.37786 2.935 -1.60128 8.77361 -15.7946 -7.11472 
96 4.89812 -4.87378 -4.04998 -24.2365 -1.72855 -3.86851 
97 -1.8874 4.64998 -2.97585 -1.16933 5.24646 0.27031 
98 3.63168 3.04876 -1.09311 -16.4546 8.59269 15.4883 
99 -0.436514 3.02378 -2.1487 8.27537 0.55541 -13.0435 
100 1.55969 -5.02382 -1.55605 6.10526 -8.91148 -6.49244 
101 1.03702 1.94908 -4.84342 33.9862 -19.0725 0.908985 
102 -3.81995 -4.15848 2.19731 -0.134463 6.91256 -20.1038 
103 -2.69435 0.0939917 4.37477 16.306 10.4401 -2.17536 
104 3.49256 -4.10923 1.34116 5.89424 2.5326 -8.3229 
105 2.83719 -2.40248 4.96446 -7.76945 1.0597 -14.7434 
106 -3.12926 -2.32849 5.46785 -5.15127 -1.42447 -3.36908 
107 -4.34356 -4.0172 -3.41484 1.21149 -0.0405506 -2.80756 
108 -4.68888 -4.6565 -0.992042 -0.371956 -4.06327 3.33973 
109 -3.65632 -4.47827 5.08704 2.81788 -17.3992 9.28972 
110 4.34919 4.65597 2.35129 4.46413 1.2428 -7.10641 
111 -1.7065 -1.65817 -2.05697 -1.67775 -1.66844 29.3793 
112 -4.8027 5.1332 -1.8088 -9.96369 -5.06406 -9.40294 
113 -0.507114 -1.31902 0.241291 -4.84759 -1.04423 1.2635 
114 3.7938 -3.26563 5.264 0.0776774 0.367984 -2.75739 
115 4.01045 4.79159 -4.88035 27.4132 -38.1164 7.83313 
116 -0.843121 -0.583388 4.60236 -4.60581 -11.549 -6.81807 
117 4.56967 -4.78104 3.11845 15.3006 -5.6824 -15.1716 
118 2.91727 3.54578 -4.00973 -15.0893 -5.95859 6.84101 
119 0.535097 4.136 5.39966 3.89727 7.18363 -4.4815 
120 -1.63838 -4.63111 1.12267 -15.9965 5.8123 -6.27674 
121 1.98176 -4.07229 4.27778 -3.5294 2.61033 11.6764 
122 4.62935 1.89057 5.39162 10.9805 1.29123 -6.11467 
123 1.90296 0.231574 -4.30592 7.68552 -8.12379 -3.21845 
124 3.69658 -0.0556414 -0.294695 10.419 0.333469 -2.44058 
125 -1.94349 3.56943 4.31491 -4.67366 1.40676 6.15517 
126 -3.14986 -2.55332 1.07911 9.72956 4.49702 -0.89738 
127 0.259483 2.85387 0.133859 -0.026947 0.791137 -0.0822103 
128 1.1876 -1.93995 -2.39263 8.5499 17.1786 8.16514 
129 -3.30259 4.6488 -5.13243 17.8276 16.7959 -6.56724 
130 -2.97643 -1.0298 0.462993 24.5347 9.17741 19.5715 
131 2.1985 2.45591 2.92043 -2.14873 -1.45606 2.70551 
132 4.79005 -2.28944 3.5128 46.3042 33.0652 0.9152 
133 -3.26715 -0.656681 1.4874 1.92844 2.03249 3.62373 
134 1.76891 4.97212 3.41415 4.2166 -2.11951 -3.46041 
135 -4.38212 -0.46328 4.15237 -19.8508 2.20541 -5.46663 
136 3.04511 1.91947 0.211247 1.92429 -0.440886 5.94676 
137 3.29698 4.69434 -2.71094 -12.203 -13.7644 13.376 
138 1.84683 4.51479 -0.615945 -5.35618 13.4693 18.4185 
139 -3.25017 1.62351 0.683455 -5.78717 1.40682 -2.302 
140 0.490723 3.63992 4.42383 -6.13281 9.10754 -10.148 
141 -1.56417 0.627303 -3.07229 -9.89769 7.13719 7.44954 
142 2.21468 5.38936 -1.08568 8.91721 7.5625 0.0634186 
143 2.79174 0.43789 2.77699 -8.05061 5.5471 -2.5942 
144 -0.919079 3.90775 -2.03172 8.10792 9.52306 -4.67757 
145 1.37894 -4.33375 -2.47667 -11.1622 -12.3927 -9.59785 
146 1.55042 4.02504 -3.76271 -1.47625 -0.136755 -1.433 
147 0.257792 -1.72789 -5.22511 -0.676204 14.9765 -5.12306 
148 -4.98339 -4.76719 3.17314 -0.199804 8.95182 22.7569 
149 2.34034 -3.36229 -2.95504 -3.25529 2.99635 0.55137 
150 0.313317 0.98434 -2.08649 -18.2711 -32.3789 -4.02681 
151 -4.50322 -1.19197 0.899441 -5.6526 3.09012 2.97292 
152 4.34215 -0.866905 5.29899 18.9449 12.0016 18.7072 
153 -4.49347 0.89514 0.750585 13.7271 -7.80734 11.5633 
154 -2.22469 -1.28719 -2.81069 -16.2232 13.5923 -15.3359 
155 -1.48241 0.849997 4.39405 -0.828843 -10.9115 5.44507 
156 -3.27711 -4.62751 -0.903547 0.725306 3.00259 -2.60103 
157 1.05699 -0.411855 3.77508 13.1946 -19.9786 16.0017 
158 5.51507 -0.929097 -1.05325 -14.707 -1.46307 -0.683406 
159 -2.69608 0.100162 0.0667599 -2.0348 -4.65979 -2.2829 
160 3.26182 5.02147 -0.874185 0.591589 13.3144 9.51727 
161 4.00572 0.205595 -4.64659 11.3968 -18.2084 -10.9064 
162 5.12571 -4.4172 2.16241 7.79874 -0.863572 3.30665 
163 3.96889 0.635963 4.51165 9.5106 -6.172 9.46243 
164 -1.59218 0.533646 0.146809 -4.87349 7.78975 13.6067 
165 -4.814 -2.43291 -4.58289 -7.36198 3.49751 3.77665 
166 1.11994 3.78423 -2.23512 2.85226 -8.37531 17.3699 
167 0.622341 4.77403 -4.07096 11.2835 9.56362 -0.975 
168 -5.45739 -0.705881 1.69729 34.3479 -29.2736 5.42555 
169 3.28949 5.06788 1.52911 -4.96931 16.7044 0.109864 
170 2.84793 -3.30587 -1.94184 16.4182 4.00761 -5.93934 
171 -4.60756 -2.80691 -3.51521 -11.6462 0.719616 2.81265 
172 5.30157 -3.1198 -2.05892 4.01111 0.375826 6.89185 
173 1.72484 -1.27784 -1.72784 -6.55825 8.16312 3.32944 
174 2.9117 -4.6178 4.27951 -1.00693 -9.26893 -17.7167 
175 4.03768 1.07175 -0.654884 13.2701 -12.4881 -5.10703 
176 2.98737 0.808144 -0.310437 -0.871336 2.11225 2.72076 
177 0.395266 2.70646 -4.95088 -15.2512 20.3053 -5.40548 
178 3.31336 4.71002 5.1973 -35.2805 -2.70751 35.012 
179 -4.71529 4.9848 2.8293 2.60714 -1.68484 -16.375 
180 1.17098 5.18498 -5.12714 4.31324 8.4522 1.90134 
181 3.58939 2.44456 3.29231 6.27658 3.80702 -2.03184 
182 2.29118 5.43057 1.27483 1.07408 8.21845 -2.96941 
183 5.58544 -1.82643 0.74083 0.661083 5.75727 -2.54872 
184 1.5853 3.67336 2.54533 3.87664 -0.96092 -8.94128 
185 -4.83724 5.41331 4.56731 -3.75325 8.35123 -26.0327 
186 2.24787 0.367994 1.73894 15.0467 8.35499 -5.42676 
187 5.24189 -3.38342 -3.42429 22.741 8.39739 29.7158 
188 -3.76082 -0.341909 0.559524 30.6893 -2.63664 -45.1023 
189 3.41403 -2.82996 -2.83926 -2.21672 -9.3487 11.1111 
190 -0.172182 -0.340036 2.38681 1.10101 4.8777 10.5682 
191 -1.73571 3.85718 -1.41553 -22.9462 -10.1771 25.0142 
192 4.55479 4.8735 -1.80262 12.9012 -11.1587 -19.1453 
193 3.67055 4.65629 4.2893 16.1817 2.39513 -40.9546 
194 -5.10472 -1.16311 0.0430486 -4.46909 -7.87725 -15.3786 
195 0.584765 -3.3514 5.38538 -5.89047 -0.536272 1.24172 
196 1.94592 1.65973 2.06139 2.10685 0.78565 4.64872 
197 -4.4565 -4.33811 0.0138092 10.5226 -9.0823 8.84887 
198 0.934552 1.7097 -1.16483 -1.23564 -18.2559 5.81455 
199 -4.40802 -5.58426 5.45046 9.08607 3.73079 17.0497 
200 -0.166033 -3.59545 -1.13745 1.20711 2.53757 0.855957 
201 3.2498 0.195069 1.11526 0.706746 -0.814246 -1.47282 
202 -3.65159 0.440511 -3.7159 9.78392 -1.62405 5.25592 
203 2.7264 -1.58955 -1.71534 11.574 -17.0078 10.7274 
204 -4.50201 0.0418561 2.31622 -0.880969 -2.85348 5.93736 
205 -5.42471 3.38267 3.94154 -0.976331 6.38472 1.50252 
206 2.38861 -3.73596 3.38576 -10.2669 12.2267 -6.86232 
207 -0.943857 -2.58089 -1.7814 -13.1689 5.73635 -18.0691 
208 0.0557719 5.55017 -4.73273 -11.1509 -8.40583 7.64335 
209 -1.72639 -1.6646 2.56138 -0.252473 33.3391 21.7289 
210 1.14926 -0.996627 1.2964 -28.0606 -21.5267 6.56288 
211 0.445271 0.00391797 -2.42474 4.75905 4.24458 -8.09752 
212 4.12642 -1.04424 2.55238 4.34352 6.7187 -13.1437 
213 -0.944515 0.725079 -1.92715 -9.41104 17.3105 31.7492 
214 -0.234658 0.758016 0.616612 -0.719941 -0.383619 -1.38582 
215 -1.5475 -3.20753 -4.9469 5.33306 2.18335 8.30469 
216 -1.91993 -4.94564 -2.72568 -26.1028 24.0256 -12.9947 
217 3.77297 5.36537 -3.29781 -9.55064 32.0751 5.35978 
218 1.04531 -2.11275 3.77928 7.07186 5.63176 -0.312909 
219 5.30493 -0.79121 2.93151 -20.7383 -13.7022 -26.8388 
220 0.650043 1.76594 -3.42282 -3.01712 6.58469 -3.72934 
221 2.42464 -2.73119 -4.01102 -1.22518 1.71849 2.26242 
222 -4.25851 4.22707 -1.37463 0.723973 -0.578128 -6.2884 
223 3.88422 3.83694 4.89849 -3.97401 -4.90513 4.72434 
224 3.03542 2.11047 4.1534 4.04937 1.07211 -2.00275 
225 -1.32375 -4.98245 4.94408 8.09559 0.456698 -2.68356 
226 -2.29583 0.1254 -4.08275 5.31821 -3.86918 0.738263 
227 -1.43427 -3.48657 0.9492 11.1295 6.12147 14.6514 
228 -1.79135 2.42413 -4.55761 -28.0978 18.6731 3.79467 
229 3.77376 4.40413 -3.6703 1.0145 1.57767 12.1655 
230 -0.328032 0.734745 1.99717 6.06704 -13.0886 -13.7276 
231 2.87316 -4.12624 2.14134 -13.7737 4.0781 9.29291 
232 4.95878 4.03483 0.737911 -10.4141 15.8558 8.77327 
233 2.71411 -3.10347 -0.884178 1.2481 10.6615 7.292 
234 -2.4487 -5.25904 -1.73134 -9.70749 -5.10261 -57.6702 
235 -1.3608 -1.85777 -4.52438 -10.313 -0.566786 2.6079 
236 -4.29177 1.39682 -2.99862 -19.3907 -8.17373 -15.7807 
237 2.41499 -4.57017 -2.14392 7.19387 -6.04175 -4.01968 
238 0.601217 -1.55624 4.73415 -4.70696 4.60824 -4.44703 
239 -1.40857 -3.99272 5.31536 -4.17594 -1.10648 10.8138 
240 -4.75359 0.101635 5.02456 1.21086 5.68166 -8.46701 
241 2.4492 1.75177 -2.88023 -12.2154 -9.64206 -10.6847 
242 -4.20335 3.67102 -2.45033 7.16979 18.1419 0.135469 
243 4.12796 -0.0714828 1.88816 -6.56849 -7.56947 6.749 
244 3.78427 -5.48082 4.20182 -10.5512 -5.05388 4.9051 
245 2.96478 1.76552 -5.13655 2.82503 1.24744 -2.95849 
246 -3.73942 -3.50237 -0.801887 7.6041 -16.6957 21.5979 
247 4.51544 -4.54372 1.28041 -1.63301 -1.25715 -3.50339 
248 -1.35953 -4.43385 -0.993736 3.5967 4.64705 0.935675 
249 4.46989 -0.422785 4.29788 0.426402 -4.2183 -5.6278 
250 -4.90709 -2.79445 3.65157 2.37314 -0.447385 -24.7291 
251 4.93094 2.71171 3.53578 -5.7051 2.64474 21.5608 
252 0.95926 -2.49539 -5.12271 -6.84162 -8.36466 10.3033 
253 1.96036 -2.79336 -4.99454 21.9934 13.3923 -8.35571 
254 5.30606 -4.12373 -2.47414 -10.1017 0.702797 0.210737 
255 -0.483705 -2.01167 1.11223 -12.2363 7.80538 -7.65568 
256 -3.56056 -1.24072 -2.21399 -10.6459 -13.373 -33.888 
257 -2.5187 3.90729 -0.268335 -0.65049 -1.20034 1.98958 
258 -3.96207 -5.30194 -0.135897 -4.59335 2.41532 4.48819 
259 4.49582 0.269608 0.929688 -9.23679 6.93012 -17.769 
260 0.499572 -3.84625 -3.01276 4.01755 17.829 24.1927 
261 -3.42785 -5.58789 -1.68069 -6.56842 -7.79515 -1.75544 
262 4.41159 -0.420063 -1.22962 -1.01125 -1.06692 2.1592 
263 -2.08828 -1.36048 4.29583 99.8127 -19.132 -49.4386 
264 1.68424 0.587611 -5.4837 -2.13651 0.476972 7.29801 
265 -2.11063 -1.60356 1.32306 -10.6649 -10.2686 2.3046 
266 1.55861 -3.85111 1.2661 -1.56781 0.748631 9.55672 
267 -4.26289 -2.48894 0.765852 -15.6199 27.5613 -1.13323 
268 -1.00962 -1.74602 5.02467 -2.78461 -0.733002 0.283278 
269 -4.95851 1.70566 3.85139 2.20708 -3.1185 1.18872 
270 1.56591 -3.79209 2.40794 5.93377 -7.82879 4.76506 
271 -3.54265 -1.03815 -0.379532 -6.51364 1.30692 -13.333 
272 -0.150897 4.54738 4.36537 3.94573 10.2861 19.1877 
273 -2.73957 1.67759 3.06396 5.47525 16.5434 8.00497 
274 2.57991 4.8965 2.60277 -3.72427 2.05607 2.3505 
275 0.497849 1.47491 -0.0113819 2.09145 -3.37171 -0.315308 
276 -4.60359 2.77088 4.27147 -10.0517 -5.77278 3.56317 
277 -5.023 1.91756 -4.31305 -10.1237 9.24979 10.2349 
278 -2.91814 -0.111937 -1.11706 -12.6582 11.2439 -16.5803 
279 5.60253 -4.51992 -3.39458 6.0413 12.7331 -3.52615 
280 -0.914609 -4.80985 -2.41557 13.7266 7.64567 7.72566 
281 2.06165 0.387007 4.65193 -5.14942 -16.4475 -4.12749 
282 5.16712 3.75829 3.13227 -4.25596 0.472669 -4.87538 
283 3.97471 -2.08168 2.76308 -4.72158 -2.87805 -2.37501 
284 -3.835 1.46787 3.87364 8.86325 10.0849 13.9505 
285 -3.87427 3.15935 4.89277 -8.77901 -5.03424 20.3777 
286 -2.09415 1.99673 -5.52595 -2.28488 1.87513 -5.71051 
287 -3.84565 0.796534 4.89055 -2.06471 7.78639 -4.63809 
288 -5.30008 -2.89426 1.10236 -0.558514 0.706589 2.1457 
289 4.59433 5.22674 -3.85858 15.8039 -5.24935 -11.0479 
290 -3.88922 2.92596 -1.51309 -3.36765 1.14265 -2.00176 
291 2.67633 -5.20017 -4.26596 -13.4176 14.0689 19.4042 
292 4.88406 -1.83067 2.2421 6.26249 -0.741176 -0.417014 
293 3.67802 -4.48638 0.386541 -31.5538 -14.4452 -1.03234 
294 -2.28705 -0.962577 3.26532 -10.3197 -3.57468 2.9077 
295 -3.22536 3.63916 -5.45547 -5.41381 -11.6966 -2.34661 
296 2.55589 3.86989 -5.57402 6.69273 -7.49828 -17.487 
297 -5.14503 -0.934232 -4.22318 -7.8877 -14.4069 -6.05387 
298 -4.49187 -2.73233 1.9541 -5.66458 -9.75133 -7.49014 
299 -4.90001 -1.89377 5.39821 26.9083 5.55479 39.182 
300 -0.925209 -4.38853 -4.91042 -6.27657 -0.794413 -0.822349 
301 0.0407347 -0.458507 4.15927 14.8453 -1.81519 -16.1059 
302 1.25196 3.24035 -0.577539 -3.34707 -1.95437 1.00188 
303 -3.3405 -4.09296 -4.20674 -1.88093 0.726098 0.087897 
304 -0.776596 5.0935 -4.16873 5.95436 -6.93576 3.31616 
305 -0.602192 0.232144 3.30515 0.518956 1.5561 0.520428 
306 1.0946 0.970647 -4.31137 10.0867 11.9309 29.4006 
307 -0.443485 1.23861 4.1206 1.45643 0.250185 -0.508563 
308 -1.0976 0.154165 -3.88172 9.30335 -0.172701 -4.60691 
309 -5.26514 -3.89669 -4.5206 1.93104 11.1184 7.28443 
310 -3.64102 -3.08672 -1.69865 -15.7752 -0.772184 -18.7891 
311 5.56935 4.98969 3.83863 -16.8146 9.59857 -0.974559 
312 2.66779 4.36943 -1.36915 14.2607 7.47561 -16.4331 
313 0.0573138 4.03993 -2.40594 -0.0494625 -8.79034 3.843 
314 -4.30634 -4.67667 -5.11681 -0.48438 10.3641 -1.30387 
315 -4.32685 -3.44964 -4.41143 5.69742 0.472575 -3.46677 
316 -2.27753 3.98969 2.86189 23.4986 7.15608 -41.0092 
317 -3.30161 -0.0435974 5.23146 1.51837 -8.3669 7.22252 
318 0.399892 -4.80316 -2.11934 -4.59455 14.7125 -11.8196 
319 5.29165 -4.41081 -1.35237 33.576 -8.24781 11.2205 
320 -0.717897 -3.16488 1.61714 4.27905 6.78894 4.8703 
321 2.02219 -5.14016 4.10694 -11.5451 -8.28419 0.0349651 
322 4.91543 -0.453841 -4.1576 9.86579 7.49012 -0.136643 
323 -3.98941 4.38194 -3.36623 -21.5395 -1.98181 -4.46051 
324 -3.80275 -0.106067 -2.71601 17.8236 -4.27016 0.975715 
325 -4.62932 2.55086 -5.42536 2.73717 -12.8428 5.47961 
326 -2.4467 2.09889 2.11745 26.889 -4.45626 9.3478 
327 0.123432 -0.47196 0.446437 9.68941 -15.1879 -21.2583 
328 3.66467 -2.04313 -2.17318 1.16142 10.7944 0.0499555 
329 -4.18713 4.07134 -0.28213 -0.471259 0.0784531 0.790656 
330 4.68953 2.29101 -2.26626 8.24669 -2.4013 -13.2466 
331 0.433947 2.92911 2.3367 -1.40067 3.2836 5.05967 
332 -0.267366 -5.33938 -0.403248 -6.47098 5.68909 3.36512 
333 -2.33864 4.5774 1.90757 3.9306 -4.21501 -0.765772 
334 -4.10351 4.80857 0.966664 -13.4276 -24.8992 4.15086 
335 -0.610728 0.149486 5.32408 4.40357 4.66217 2.49162 
336 -1.43369 5.00946 1.269 -0.97939 -0.633837 -0.626421 
337 -0.814018 3.46645 -0.495207 2.26403 8.29418 1.37337 
338 0.0461201 3.23902 3.48156 11.2006 2.70398 -2.0995 
339 2.42281 0.605432 -2.07736 -6.01157 -2.67754 -1.10853 
340 -5.57711 -5.55803 2.80315 -5.30087 -3.04204 5.95081 
341 -2.54044 5.45122 1.24089 13.0628 -15.8887 17.2138 
342 -3.31073 -5.41385 -4.58587 1.58753 0.642883 1.44859 
343 0.303513 0.707737 5.02203 10.1911 -36.3702 -34.2549 
344 2.63099 -1.46791 2.66665 36.4172 -7.91829 16.5215 
345 0.288331 -1.69917 1.82655 -0.173161 3.25036 -10.889 
346 5.15296 0.0675371 1.66747 -0.728272 25.1317 12.3727 
347 1.43957 1.46426 1.11767 0.532307 -0.702246 -2.70051 
348 -0.995661 -3.61474 -4.10686 22.7108 5.81109 -12.8018 
349 1.11577 -5.57241 -2.8814 0.197582 18.3646 -0.301626 
350 4.83847 1.01828 0.10115 36.5437 6.57156 -8.38357 
351 -3.04994 1.53916 -1.45766 11.6485 6.08574 -0.867993 
352 5.22527 -5.37723 -1.82734 -3.50979 7.79745 -18.2373 
353 -2.48967 -4.67763 2.23529 1.07158 -5.443 1.81531 
354 4.58597 -4.19096 0.17601 30.4977 17.5949 -15.1878 
355 4.19957 -1.65301 -3.28452 -2.88767 -17.3917 -16.409 
356 1.77557 5.24417 -4.1917 5.71083 -16.8685 0.138887 
357 -3.27016 -1.95542 0.145975 0.679689 -7.99439 -0.36673 
358 -4.09464 -5.45298 3.21709 -24.9604 18.4228 -1.99681 
359 -0.721197 -5.03966 1.29819 -4.22257 -67.754 25.8614 
360 -2.07347 -5.22023 -0.869064 22.209 -8.25224 51.7638 
361 4.97548 -5.02885 -0.624909 -11.2508 -5.7162 14.6277 
362 2.55024 5.12621 -5.094 7.14993 8.28818 10.1047 
363 3.19508 0.645067 -1.39814 11.4073 0.541142 9.41576 
364 4.77705 -2.33512 1.2281 7.31754 9.287 -2.68434 
365 4.32844 0.465044 -1.98564 1.04038 -2.15923 -0.759678 
366 3.56977 1.23276 3.77469 -14.5737 4.70997 -10.1591 
367 -4.25234 -4.76857 4.28792 3.74162 -13.9463 -7.77247 
368 0.682391 2.9033 1.28462 -7.57491 -11.7105 -3.0746 
369 -0.756524 5.16634 5.19875 -2.98917 -0.444044 -0.0353133 
370 -3.89341 2.2384 -4.32397 -9.77497 -5.69668 4.56247 
371 3.0949 -1.48502 -0.121123 -75.1187 25.6282 -16.8583 
372 -4.52018 1.36047 -5.0042 8.0567 -1.61785 -25.8195 
373 -3.90041 -2.28821 -2.77139 -5.01563 2.17905 -3.84583 
374 -0.545558 -4.18889 1.92445 -6.75939 1.55049 1.49233 
375 4.02795 3.39193 2.69438 -2.63872 -0.783861 8.33422 
376 -1.52293 -3.34538 2.55569 11.3024 -1.37164 14.2626 
377 0.0962315 -2.13566 -1.71191 -14.1308 5.66375 -12.6162 
378 3.11877 -1.24304 -2.71521 17.2273 -30.5794 -24.6839 
379 0.874513 -5.42233 -4.10775 -4.37489 1.07858 2.07167 
380 0.891953 4.1641 3.21052 -8.10647 1.67516 7.15382 
381 -0.448983 -3.59165 4.74384 19.9523 -13.0542 5.52697 
382 5.22754 1.08339 -2.67902 -6.00457 -0.684554 1.56216 
383 -0.741854 3.6005 2.70317 50.3317 -58.9429 -13.5618 
384 -5.26131 0.748104 2.22965 -7.41625 7.0225 -2.39295 
385 -4.10394 2.73428 -0.398289 0.342576 5.95885 -2.33626 
386 -4.13656 2.41611 3.42147 -6.28036 -35.8029 -25.5486 
387 -2.11658 -1.93917 -0.0594031 0.0459168 1.37832 3.35644 
388 3.55813 2.93156 5.39696 -2.81982 3.92525 5.52595 
389 -0.59432 5.39519 3.46688 1.43207 -2.37191 2.10288 
390 1.7468 1.53576 -1.93296 14.1405 31.5763 -2.82907 
391 -1.32727 0.910006 -5.58338 10.8828 3.4502 -3.19065 
392 -1.84486 -5.29867 4.01635 1.08753 13.1624 7.25075 
393 -1.05693 -2.046 3.95185 -4.69442 -8.29212 3.05955 
394 2.29796 -1.16701 0.485025 -21.3035 -6.30841 3.13181 
395 1.04946 4.8625 2.39375 1.52034 1.14004 -3.20485 
396 5.41636 4.85293 -5.38496 0.0324385 -0.863012 -2.72932 
397 -4.65573 2.37437 -3.34498 2.28225 -6.74093 -7.23556 
398 0.429651 -2.59711 -4.0956 -5.20764 1.66668 -2.67359 
399 1.88889 3.77438 -1.28232 -28.7223 -20.2199 -1.22184 
400 -1.04314 -0.132507 -2.47541 -11.305 -19.5143 -24.0324 
401 -1.29618 1.76032 4.84084 8.38599 6.78661 13.9106 
402 -1.74351 -3.84314 4.3349 -15.0423 -9.78057 0.792753 
403 2.64587 -4.01121 0.136442 5.7783 4.72568 -9.8905 
404 4.05679 -2.94708 -1.76585 -5.8447 -6.40614 14.5308 
405 -0.333817 4.34016 0.575896 18.2749 -33.5783 22.6775 
406 4.80007 -0.164491 -2.97562 -4.20119 16.2622 16.619 
407 -3.09417 0.777264 3.42478 -3.99291 -14.999 2.19743 
408 1.02323 0.0298254 -3.75438 -4.99339 -18.8506 -3.94776 
409 -2.14459 2.7165 -2.31118 -9.76536 -16.6526 0.84093 
410 -2.35387 3.67145 -4.78641 -6.35944 -2.64366 -4.98849 
411 1.13187 3.77991 1.47916 2.10303 6.76843 9.74409 
412 -0.296038 1.4367 5.25251 -24.7175 23.9848 14.3416 
413 4.36087 5.16918 1.02689 6.81003 -3.93138 10.0225 
414 -1.01416 1.82706 -4.6437 27.3466 -16.902 -13.171 
415 4.07727 -1.93662 5.4241 24.1316 -7.87643 -19.26 
416 -2.18496 -1.99018 5.31243 12.8537 12.6307 8.22091 
417 -4.53162 -2.78957 -1.10816 6.34743 4.452 8.76218 
418 4.74775 4.92917 -0.177352 2.2208 -2.81233 15.269 
419 0.608821 0.380635 -1.05964 -13.4745 -7.20155 -21.7115 
420 -0.280147 2.27226 -4.04079 7.09165 12.1508 15.2677 
421 4.68429 -4.05226 -5.52275 4.06241 5.55841 8.49215 
422 -4.46356 -0.199952 -4.01745 18.6096 -1.42229 7.34579 
423 4.93787 1.13138 1.89776 -14.4327 -34.6261 7.58299 
424 4.32278 -4.63226 4.79279 4.77168 -9.91172 -4.36181 
425 3.43854 2.07585 -2.89368 23.1118 -27.8071 -31.233 
426 -5.06986 5.4201 -4.71733 3.47124 -18.1491 -38.5424 
427 -4.85184 -3.99091 3.98061 -29.8577 3.8513 -20.6683 
428 -2.06671 1.52316 -3.57572 17.0333 -13.2852 -10.901 
429 -3.45511 1.90042 -0.395648 3.00225 -10.1689 -2.34486 
430 4.34788 5.17035 3.45204 15.3408 11.0033 -1.69908 
431 -5.16508 4.18268 -2.66384 24.7695 -2.36931 -26.1774 
432 -5.16862 0.754208 -3.30108 -18.6383 20.1806 1.39364 
433 0.418255 2.25933 3.9882 -5.50694 -2.00201 9.21354 
434 -1.38609 -0.0931971 -4.9518 3.89672 12.8739 -10.2511 
435 3.96419 3.5294 -0.122108 6.72183 -12.6394 15.9263 
436 1.88025 2.07495 -5.52496 2.15577 -1.42079 -2.5491 
437 -0.231841 -5.46483 -3.25671 30.8803 16.6878 4.85184 
438 -3.28793 1.57254 -3.55451 -29.4807 -32.1306 -24.9276 
439 3.63904 -3.11784 0.926196 -4.95535 5.21158 5.82569 
440 5.03832 0.528783 3.81045 -2.34488 13.5477 23.695 
441 -2.84365 -0.438714 2.54997 -4.61782 6.14803 -3.16556 
442 -3.43765 3.66479 0.410751 -0.66436 -5.67515 3.58415 
443 0.719675 5.48879 -1.81889 -4.7533 -4.50013 14.4435 
444 -1.61707 2.32127 4.03932 -18.2784 7.22107 -2.96307 
445 1.3336 -3.56091 -4.80175 -7.93925 -0.539484 -3.63987 
446 0.920949 -1.90856 -1.18014 25.4253 1.08033 5.61313 
447 -0.691026 5.22936 0.351821 -10.9923 30.1736 9.46409 
448 3.71112 -4.11432 -0.682754 4.36836 2.78066 0.138895 
449 -1.52675 2.58205 1.3867 4.79699 6.42206 7.50673 
450 -0.877115 1.42928 -3.64746 -11.4117 0.675912 6.30095 
451 5.37183 -4.94682 3.98506 -0.862092 -3.82383 -1.54568 
452 -5.29171 1.54303 0.791563 -13.4813 29.1329 1.14862 
453 4.24686 1.28448 2.92658 3.40839 -6.23126 5.05347 
454 -3.37887 4.52627 -2.18525 -4.82302 4.10821 0.728387 
455 3.59339 -2.19364 0.275875 26.8241 -34.0916 25.8866 
456 -2.10714 4.84103 -0.740729 -6.74883 -2.92525 8.14174 
457 -0.134966 -0.508008 -0.637055 -0.256089 2.23092 -1.64496 
458 -2.94914 -2.97681 -4.59439 2.2062 -3.48475 -4.12353 
459 5.17383 3.69394 -2.35351 -14.3893 -9.23656 -3.56419 
460 -0.249442 3.44089 -5.60085 6.20806 5.18961 -1.34541 
461 4.73689 0.736591 -3.65203 13.2361 -11.2256 3.84949 
462 -2.28705 0.548491 5.31724 -8.26802 -2.04303 0.380884 
463 -5.16348 -5.27755 -2.82887 0.401481 -6.06074 8.60418 
464 -2.91574 2.81373 -0.936608 -14.5398 -2.227 -24.791 
465 -5.58018 -0.341562 3.75064 15.1303 -4.07195 8.3477 
466 -4.81871 -0.0856456 -2.91033 -1.86358 -40.94 -9.90557 
467 -0.0397726 -0.738146 1.43359 0.368046 -5.22884 -2.34388 
468 -4.0414 4.01366 -4.81708 3.07107 -30.3498 26.1678 
469 -5.522 -3.16387 4.36113 -9.7414 -4.61625 11.5484 
470 -2.36801 -3.31711 -5.5855 -8.0039 12.4232 -19.9673 
471 -5.24134 0.410638 -0.457259 4.16424 0.0164804 5.11076 
472 3.35709 -0.124457 -2.53263 17.5981 15.0268 -8.56519 
473 -5.10644 -1.81977 1.68276 3.87915 -0.260631 0.672027 
474 4.04364 1.71238 -4.84741 0.161658 10.4784 4.13972 
475 1.67158 3.8099 4.62399 -5.13168 -0.754733 7.35377 
476 3.69128 2.63516 -4.56975 -16.4555 16.7327 -10.8827 
477 4.04851 -2.88851 3.4962 -44.041 -39.0259 -2.93975 
478 0.934267 -3.91933 4.46949 -6.42795 3.98283 18.2973 
479 1.16815 -3.12104 -3.52573 4.31801 -7.76152 -19.2691 
480 4.96711 -2.26965 -0.927504 1.31251 -4.02124 -0.831895 
481 -3.38713 -0.57156 4.02218 19.4378 -22.0873 12.3699 
482 -1.06362 -0.934828 -3.23236 1.40019 -2.38523 3.33543 
483 4.84508 2.96905 1.14095 -4.34268 -17.5151 -4.42567 
484 4.5554 -3.91187 -1.72166 -35.3346 24.0243 -17.0962 
485 2.49364 2.83023 -4.9701 1.69992 2.81538 0.940387 
486 4.1261 3.16797 -2.59753 -5.9675 4.31036 -54.8978 
487 -4.07393 -1.9864 2.55027 6.72524 -5.09481 4.65164 
488 3.69435 -4.48357 -3.87839 2.00111 -0.280277 -3.78722 
489 1.11885 -5.41634 4.99363 11.683 -7.25653 17.9269 
490 -0.451133 -3.22142 -3.11251 -1.86856 -0.860895 -6.23672 
491 3.45782 5.52672 -4.64263 -9.20697 32.4908 6.61507 
492 3.32558 5.58508 3.00305 3.6195 5.31496 3.63216 
493 1.02495 -0.0929502 0.569286 29.5889 9.70052 -9.81999 
494 -4.92916 5.22182 -3.75252 4.95964 -4.3281 29.5703 
495 -3.72889 -5.00297 -3.12959 -4.05485 1.64026 -3.66734 
496 3.61325 -3.05812 2.51455 -10.0345 8.20486 -17.132 
497 -4.72809 4.57774 3.72654 19.5274 -13.7895 22.8082 
498 -3.46721 5.23705 -3.57009 0.525363 11.7075 -1.17552 
499 -2.89891 1.11302 2.22372 -9.85698 -2.59463 -8.00124 
500 0.862226 4.72672 -2.50166 9.63076 -5.21615 3.79146 
501 -1.40713 -3.07899 -0.786935 -4.70795 -14.4619 -0.626632 
502 -1.24847 2.38928 2.44955 -3.58572 11.1731 8.61657 
503 0.777742 -5.06142 4.1172 24.6653 21.3149 4.8363 
504 5.09625 -1.5062 -4.09165 -1.88407 -1.02699 -0.888365 
505 -2.84971 5.5673 -2.77121 6.45916 -5.48621 2.95185 
506 -3.37211 2.99415 2.62992 6.69478 3.56844 5.49628 
507 -1.46868 3.454 3.36573 -20.7681 -4.03095 6.9427 
508 -2.08484 0.558612 -1.94163 -0.892233 0.291797 -4.01821 
509 -5.4132 2.82656 -0.607527 49.2869 -17.5674 -0.416026 
510 -5.51337 -3.46027 -5.41776 -2.06265 -5.41303 -10.0707 
511 1.22416 -5.18691 1.21605 10.7277 0.0167424 -0.489776 
512 2.70696 -0.243209 0.01293 10.8414 5.94177 13.5807 
513 -4.57068 -3.34045 -0.176164 6.98822 7.92008 6.97711 
514 -3.8494 -4.46534 1.08353 -1.21797 -2.02686 -1.78479 
515 -0.0603503 4.58498 2.52749 4.5172 -4.20976 -0.999146 
516 5.37044 -0.455042 0.685261 -7.99238 -7.60849 -2.58296 
517 0.699887 -2.08738 2.68891 7.82939 -19.2415 12.1172 
518 2.87428 -1.11926 3.60789 9.08349 -1.75124 15.1311 
519 -5.32888 1.06663 -1.80689 2.05313 10.5129 8.15358 
520 1.42482 -1.58128 -0.125035 -0.878585 -4.79209 1.33868 
521 -4.7439 3.31025 -4.49131 -6.84737 -10.1563 1.34916 
522 -5.43939 -4.84687 1.29694 -19.3206 4.79119 -10.5428 
523 -0.884398 -3.82028 -1.92842 -4.65122 1.83118 0.097267 
524 5.28076 -2.65585 -4.6639 4.24751 1.14063 9.14503 
525 5.31868 4.93058 -2.52954 -2.41007 14.2497 -10.8198 
526 2.52738 2.68995 1.06153 7.36197 -3.56662 -7.38831 
527 3.3505 -3.86738 3.07409 14.3805 -14.3719 11.7623 
528 0.00966069 0.886465 -3.72336 13.5682 -4.03616 -7.98528 
529 1.92452 -4.20646 -5.48394 -2.55553 1.90734 2.10844 
530 5.10081 -1.53316 -2.77361 3.53134 1.9521 -6.31238 
531 -1.72181 1.61185 -1.17465 6.20026 0.324539 -8.29701 
532 -5.5949 -0.675516 -3.29305 5.00624 -11.1617 -11.2157 