ITEM: TIMESTEP
1500750
ITEM: NUMBER OF ATOMS
1000
ITEM: BOX BOUNDS pp pp pp
-27.681600 27.681600
-27.681600 27.681600
-27.681600 27.681600
ITEM: ATOMS id type x y z fx fy fz 
1 1 6.08485 14.7856 24.8495 0.902569 -1.24042 0.15356
2 1 20.8244 -3.83179 13.042 3.85868 -2.66929 4.19811
3 1 4.52324 20.0252 -5.62571 -0.75117 1.32075 -1.97488
4 1 -10.1188 3.56456 -0.0564779 -1.18746 -3.67342 -4.66856
5 1 -8.3347 11.7061 7.19396 1.72679 -0.2844 -1.27685
6 1 14.1908 -20.3461 -7.70214 0.89189 -2.17363 0.64119
7 1 -25.3002 6.07979 -5.64258 -0.342078 5.31536 -1.25136
8 1 -1.44328 18.8621 -1.74797 -1.32139 -4.4268 -0.17556
9 1 -26.0418 18.0498 -3.31805 1.95478 2.53159 1.8628
10 1 -6.42791 9.34407 2.84172 1.31604 -1.15848 2.21662
11 1 -8.30147 -2.77452 -18.3848 1.6284 0.89908 -0.64372
12 1 -1.5141 26.6993 1.80495 -10.8516 -5.07702 -3.37513
13 1 -25.9649 -22.8383 26.337 1.66245 6.1808 -3.052
14 1 -5.72875 -24.8007 -21.4023 1.06254 -1.80802 4.89975
15 1 -17.6602 -15.9089 -15.4917 3.63121 -1.81768 1.44102
16 1 -4.06474 5.81254 -22.9691 0.07642 1.57162 0.52465
17 1 1.23454 26.644 8.05276 -1.4792 -4.17988 -9.9732
18 1 -3.79983 14.4937 10.472 0.127359 1.2987 -6.89517
19 1 0.665979 5.48593 -25.3419 -3.58532 -0.589433 4.34225
20 1 -2.28906 -20.0697 13.7733 0.667568 -2.03111 -1.33616
21 1 -17.6442 -24.0878 25.7308 -7.7911 -3.51077 -0.1964
22 1 8.6082 -13.8867 22.3038 0.8547 -2.79743 3.62738
23 1 26.8736 24.5686 1.1984 0.93286 1.42532 -1.2484
24 1 15.4111 -26.6008 18.5619 1.88186 -0.666964 1.28325
25 1 -20.175 6.72205 -14.0599 2.09277 -0.77022 7.14244
26 1 -17.2753 -9.1794 -7.89703 -0.24029 0.76992 -1.76545
27 1 -10.7038 0.0785435 4.82236 -3.99564 -1.05212 -2.56814
28 1 5.30942 15.1029 -9.74508 -2.35091 1.01421 -0.00321
29 1 8.67027 -22.1357 -17.0472 -0.00412 -0.56794 1.22666
30 1 18.0002 23.3661 -11.9651 3.26037 0.719527 0.51128
31 1 -16.8884 -21.8205 -15.0679 0.16824 2.02661 -0.819703
32 1 -3.53447 -20.7681 26.2119 1.0226 5.37378 -5.94012
33 1 12.2742 -1.78085 4.27541 -1.6708 2.29806 11.34
34 1 11.7163 -20.1116 22.9976 7.96593 -7.06194 -6.84229
35 1 -5.28166 4.65208 26.9538 2.71589 6.54682 2.12888
36 1 -9.34064 -8.26667 26.3085 0.09949 -0.90505 0.30262
37 1 4.55354 -4.90897 -6.90987 2.38584 1.82259 -6.59774
38 1 22.6279 -13.5674 -19.6163 -0.09058 0.92838 0.256465
39 1 26.0833 21.5704 12.4117 0.45967 0.105401 -1.34985
40 1 7.78825 11.4545 0.707213 -2.82952 -2.09122 2.28069
41 1 -4.95933 -5.38183 -23.2122 -0.05059 -4.36089 -0.484134
42 1 -25.31 2.71619 23.356 -0.71572 0.38821 -3.8076
43 1 24.5969 -13.2781 7.90918 -4.47524 -3.80377 -1.33807
44 1 -20.7977 -20.2345 -1.16817 -2.28902 2.98252 0.63753
45 1 -7.99825 -8.09154 2.96079 3.01013 9.41979 0.62522
46 1 -24.6202 -26.0886 -0.630757 0.40497 6.12559 -4.14751
47 1 2.04955 -14.0274 -20.0195 -1.96829 -1.28628 -1.67952
48 1 -13.8419 3.57924 27.0652 -0.17701 0.56588 -1.34693
49 1 -8.80187 8.31838 -1.98247 2.82315 4.19331 -0.2111
50 1 15.4406 -24.2792 -1.84697 -2.06855 0.33107 -0.891833
51 1 22.4742 7.25803 -18.5384 0.250233 -5.22953 3.57583
52 1 -21.1158 -13.2774 -25.4473 -0.13287 1.11133 -0.120837
53 1 -12.8952 -20.95 -0.61235 -0.809414 -0.448794 3.1519
54 1 -6.32032 -0.367145 -1.65979 2.21692 1.41276 -3.26676
55 1 7.43505 0.133802 -22.2836 2.28851 -0.36454 -1.5284
56 1 -24.3648 -13.3798 26.1724 -3.39983 1.76997 -3.25995
57 1 -15.4233 4.20239 1.17476 2.68289 2.51702 0.81039
58 1 8.52935 19.8924 -9.18733 2.85123 -1.95574 -2.06649
59 1 26.9612 -12.1339 -16.6884 4.04456 -4.68263 0.82484
60 1 -3.83477 9.03733 8.62218 -2.18041 1.6536 -0.47219
61 1 -19.4796 -6.48629 17.6101 -5.64852 0.716976 3.41389
62 1 5.40238 27.1732 0.928198 10.6594 2.8929 -0.19289
63 1 -18.6786 -14.7233 7.24594 -1.82458 2.17523 2.77391
64 1 -8.91066 1.51365 24.774 -6.42533 -0.00292 0.18317
65 1 -8.54946 -19.7005 24.4467 -1.59259 -1.29297 2.7894
66 1 -25.0313 23.7187 -9.74441 0.02628 -1.65642 -0.57075
67 1 3.27108 4.98893 15.9637 -1.90132 -2.29873 1.99723
68 1 0.613778 -9.47162 1.08187 0.172 -2.12171 -0.37739
69 1 4.75354 -23.3576 -10.7364 -1.70639 0.69428 1.33862
70 1 17.8346 24.8638 7.51487 -0.28298 -5.0549 4.79058
71 1 18.788 -12.4144 -14.9913 1.33416 -2.15187 0.271171
72 1 -1.89799 -25.506 -12.4946 7.24659 4.81706 -2.60073
73 1 13.4001 -11.6751 -23.8731 -0.678169 -0.584913 -2.16085
74 1 2.06867 -19.6485 18.4052 -3.3495 2.9545 -0.11603
75 1 -25.5272 -7.71136 -11.9442 -3.02675 0.60726 2.21994
76 1 24.2824 -3.99332 -24.8045 2.8818 1.48455 -10.477
77 1 3.59306 26.283 -21.3277 1.25755 -3.54862 -1.34753
78 1 -0.383986 18.7408 3.23022 -0.23516 -1.27301 1.5061
79 1 -4.68658 -2.00162 14.0006 -1.1732 3.76458 3.67549
80 1 -15.4484 -25.4617 10.4044 -0.62536 -4.05381 -0.205268
81 1 -26.3224 6.59491 -19.0275 -3.58275 -5.86103 -1.78743
82 1 -14.7438 -23.0362 22.0536 2.13253 0.63031 -2.14523
83 1 0.112873 -5.33573 -26.91 -1.14219 1.20721 -1.15891
84 1 -6.99989 25.4725 -22.938 -1.54386 1.11982 -1.01365
85 1 -5.82294 -5.22833 -14.1786 2.50314 -4.0052 -2.70489
86 1 11.6852 -20.9772 17.9427 -1.67182 2.96114 -0.62968
87 1 -5.0329 0.399988 19.9112 2.25914 2.45398 -3.31871
88 1 -16.7614 25.1297 -3.84665 0.80078 0.77015 -0.42187
89 1 4.13739 6.34966 -20.5141 2.24187 0.175393 0.66182
90 1 -13.7863 -6.99346 -13.5802 1.66954 4.45493 6.06747
91 1 -24.72 -21.5738 -5.26072 1.29453 -5.04615 1.1385
92 1 -17.1288 -17.5843 -3.3553 0.10889 0.846463 -0.216898
93 1 23.9804 -16.3562 -26.0836 -1.97352 4.49643 1.97496
94 1 4.93363 7.36616 -8.29221 8.52627 7.46082 -9.43261
95 1 -2.58892 -7.02641 4.27927 -2.03148 0.2478 -1.62238
96 1 15.9804 10.8475 3.84026 0.868269 2.28724 0.99864
97 1 26.6753 10.1062 -25.6357 -2.94739 -3.44318 4.399
98 1 -7.40412 -25.0355 2.34763 -2.46496 -1.36341 -5.35333
99 1 -3.89409 25.0163 -13.6445 -1.0578 1.9083 -1.03166
100 1 9.51609 6.21126 6.36861 -7.61664 9.51896 -0.512294
101 1 17.5269 0.480422 20.0381 -1.40773 -0.35459 2.97913
102 1 -1.20754 -9.94295 15.6571 -0.04265 -3.97146 -0.94208
103 1 -1.76605 27.3053 -18.472 -1.42549 -2.12351 3.31929
104 1 4.4575 -26.6268 12.164 0.56677 -0.42337 2.30709
105 1 -21.1183 11.5452 -10.661 0.69054 -0.912321 -1.24622
106 1 -5.10542 22.2294 -27.5221 -2.3085 -0.30306 -1.41643
107 1 19.8299 2.74105 24.0179 -10.7171 4.65766 0.815195
108 1 -27.6521 16.6701 -27.3847 1.40009 -1.48942 1.31597
109 1 2.35509 -24.8683 19.8988 2.38373 -1.27943 -1.72168
110 1 -18.8336 -14.701 19.9041 0.45537 1.70823 5.1918
111 1 -12.9255 10.9802 -6.94233 -2.99334 -0.2867 -1.07831
112 1 -22.4114 4.82936 8.39974 1.67144 9.00563 -8.6492
113 1 3.87685 -17.8952 -26.2723 -0.10879 2.12005 -1.96217
114 1 10.0162 13.4501 -24.7892 -2.52143 1.91707 4.18221
115 1 7.82709 21.5788 1.88371 -2.08696 -0.15909 0.29688
116 1 -18.1103 21.9069 -13.5288 -7.73986 -6.32948 8.55025
117 1 5.27595 -3.95439 -19.0764 -0.503 1.13579 2.53
118 1 -8.39243 23.193 23.0989 -2.23296 2.73722 0.074745
119 1 13.5122 11.1729 -4.86454 0.53242 -1.07905 -2.6434
120 1 2.53485 -8.16653 -21.5541 -0.0235 -1.92883 1.89067
121 1 -15.7784 -23.0898 -8.05548 0.07255 -1.30479 -1.48537
122 1 5.22349 0.265863 -14.0265 -3.64033 -2.13162 2.64918
123 1 17.5501 -14.2099 7.55388 0.22985 -0.56201 1.07768
124 1 -12.8895 21.8986 -7.13357 -0.90126 -6.69724 6.14418
125 1 -13.9918 13.8894 21.9441 7.30199 8.4038 2.86747
126 1 10.1803 19.3702 -25.6823 3.83039 -3.7085 1.6435
127 1 15.8121 26.6591 13.298 -0.59491 -1.14224 -1.17346
128 1 -7.26352 -25.5611 -15.6028 -10.1383 -12.2857 -4.92919
129 1 -14.9054 -10.229 1.49795 3.99569 -4.37961 1.74562
130 1 27.0789 19.3551 6.70525 -0.20581 1.53979 0.65156
131 1 -10.9632 -12.6504 -24.2547 -1.06131 -3.02188 -2.10868
132 1 24.8902 -19.9685 16.4115 0.47104 -1.95553 0.00133
133 1 -6.48805 -26.4933 -9.54869 -3.35677 2.07153 -0.97485
134 1 4.97672 6.26934 22.4608 1.38953 1.13988 -1.59837
135 1 10.471 -16.8612 14.0632 -2.44617 -0.20956 1.93176
136 1 -20.0951 -24.4379 -3.07378 -4.98089 -3.01593 -3.16274
137 1 -2.4187 26.9218 -7.29917 0.41988 -3.48763 4.66775
138 1 -23.8213 10.8994 -16.9334 1.85422 1.33685 -0.2358
139 1 -11.9247 16.6737 -6.30551 5.03899 0.87896 -1.11708
140 1 0.193149 -10.4039 20.7521 1.01935 -1.47115 -1.84819
141 1 -6.41159 17.7832 14.5759 0.0077847 -6.88943 -5.33772
142 1 9.22091 24.6763 -6.85419 -1.0224 2.86085 1.98447
143 1 -26.6503 -26.0095 -10.6068 3.3647 4.40921 -3.86005
144 1 16.2723 22.2067 1.516 -1.5493 0.3443 1.18864
145 1 18.5873 11.3485 -3.28319 -0.24443 0.26721 0.098075
146 1 -23.8153 -25.0724 6.21076 -3.29166 0.883025 0.611348
147 1 6.16142 -16.0494 -14.2419 2.48235 0.56225 -2.18172
148 1 24.2811 -19.7392 -20.4941 0.08099 -1.32813 -4.31062
149 1 15.78 -26.9591 3.04342 0.76099 6.94723 -2.66803
150 1 -14.8322 -4.60074 17.6686 0.66546 0.017113 0.91904
151 1 15.9556 -24.6883 23.2596 0.33271 0.78706 0.101879
152 1 -17.4042 -12.71 12.3294 0.40249 -1.86399 0.42814
153 1 9.52591 -13.8345 -17.8095 1.30577 0.02781 3.54347
154 1 15.3944 8.42344 -9.37155 3.14073 -3.33791 2.82514
155 1 8.2414 -4.49106 16.0612 1.66149 2.73981 -0.48095
156 1 -2.50289 0.0361997 7.97783 1.67449 -4.84343 -2.89553
157 1 20.9909 -15.531 12.0101 -5.7919 5.2289 4.09476
158 1 14.273 16.6531 2.77411 2.05171 0.04131 2.00472
159 1 7.33097 -18.341 18.9199 2.49786 -2.01594 -2.62342
160 1 22.2746 24.8889 -3.1795 11.1658 -2.01162 1.82252
161 1 -22.1377 27.6567 25.1117 1.19098 -0.39258 -0.74813
162 1 -26.9264 3.02427 18.3798 0.11123 -0.48302 -0.65884
163 1 -19.3719 6.6586 -18.6951 -2.88984 4.07385 -10.3737
164 1 0.746158 -27.009 23.8761 -3.52284 -4.13489 2.68349
165 1 18.3494 -10.6604 22.326 -0.243477 -0.38846 -0.8207
166 1 23.1822 -17.9839 20.5572 0.24641 1.17088 0.0294
167 1 5.01005 26.0727 17.1286 1.30404 2.0129 -0.20208
168 1 -27.3699 18.0295 -8.35643 0.83199 1.73399 -0.97311
169 1 -8.21222 24.921 -18.2122 -0.36359 2.64165 3.01432
170 1 19.352 5.19658 -14.7321 -0.18056 -0.77579 -4.49615
171 1 20.6803 18.3951 -13.507 0.68121 10.8693 -4.05258
172 1 5.93912 -12.79 -25.5663 -0.21194 -1.98511 0.71993
173 1 -10.3278 -3.2659 -24.5413 -3.43053 -1.1396 -0.21085
174 1 -20.728 21.7778 -21.5738 0.1345 0.52694 2.75334
175 1 -12.8335 -0.00745095 -21.4243 -0.29958 -0.21541 -0.59676
176 1 14.8539 -9.04473 26.457 -2.4265 1.69506 -1.61042
177 1 2.97707 1.24709 20.5684 2.00087 0.12555 -2.53719
178 1 -21.2846 -22.1059 -25.7362 -4.16001 9.13975 0.18543
179 1 22.3048 -3.21129 -20.0606 -3.78329 -5.0845 5.21343
180 1 13.7776 -6.02616 20.0891 -0.84322 -2.46323 -2.21777
181 1 -15.0122 9.14088 -11.1362 -0.72864 0.35695 0.45048
182 1 -1.62397 -4.24906 19.024 4.50755 2.43817 1.07804
183 1 14.6777 -22.88 13.9926 0.0136 -3.38282 1.58476
184 1 -26.8233 -1.8091 -20.2032 5.18529 0.99674 -2.9328
185 1 11.8575 -22.7324 7.10809 -0.705636 -1.02596 -0.44771
186 1 -10.3966 8.09792 -25.8319 1.066 -1.09045 -2.75584
187 1 -21.603 -21.0497 -19.7903 0.45462 -1.01239 2.00191
188 1 14.9825 20.8145 -23.6693 -2.57001 2.2949 1.86644
189 1 3.91149 -19.7453 -5.29831 5.35344 1.64317 -1.6558
190 1 -1.35253 -0.821769 -13.9251 6.75763 4.0653 2.05161
191 1 -1.54387 -15.1788 17.1709 3.60489 -0.430121 -3.34016
192 1 22.3376 1.83381 -10.7075 1.8383 -7.95329 -8.15236
193 1 22.3773 17.2404 -4.49139 0.667806 -4.56069 -4.00701
194 1 -10.3048 23.8538 4.53073 1.81758 -0.843471 -2.45211
195 1 9.19312 26.2663 24.7555 2.25444 -0.27107 2.25957
196 1 -23.6331 -4.93349 10.8319 -2.32661 2.95627 -4.61974
197 1 -24.8596 -17.0856 19.1927 -2.86499 0.75313 1.12171
198 1 -20.5544 -22.6978 -9.10504 -3.49734 -2.67165 2.45239
199 1 -18.6603 -2.46427 23.0966 -2.27918 -2.44953 2.38757
200 1 -10.2211 -6.34345 7.69148 -0.815124 0.609362 0.2671
201 1 -14.96 24.7913 13.3272 -2.39591 0.419699 6.86803
202 1 19.8099 -25.128 7.56465 -2.30413 -0.008311 -0.68282
203 1 20.1067 -2.71454 -14.8154 -5.0131 -0.397954 5.27836
204 1 -13.7718 -21.1534 15.7346 -0.83161 -0.80961 5.24348
205 1 18.9532 -1.34348 -27.302 -1.19776 0.62589 1.92269
206 1 -18.1986 -4.0305 12.9671 5.36311 2.60299 -2.7909
207 1 27.1511 11.5194 12.6368 3.29611 -2.6116 2.76049
208 1 -14.2411 -7.31755 12.4259 -3.92753 -1.80265 -2.91882
209 1 -20.6194 -18.7262 15.6059 1.34251 -1.23452 -0.7775
210 1 -4.11114 12.8737 14.856 0.155807 -4.98373 2.12738
211 1 17.7409 14.5181 -10.2359 -0.10826 -4.75866 6.90017
212 1 -3.95965 -11.6993 7.02908 -4.63257 3.19387 -1.91556
213 1 25.4491 23.2069 25.0819 -1.63785 -1.55856 0.76424
214 1 -3.06417 5.24567 -0.158796 -0.20224 0.433641 -0.62915
215 1 11.5236 12.1681 5.95769 0.69895 -3.54475 -0.368183
216 1 -17.5747 20.0997 10.3543 5.71851 0.243759 1.67047
217 1 10.9442 25.9843 2.90742 -0.266297 -0.66808 1.38338
218 1 -23.4812 9.87531 9.48763 1.36355 -0.467318 0.87255
219 1 -12.2869 26.9689 -0.3873 6.86399 -5.32094 1.79892
220 1 12.1877 -13.3076 -11.956 -2.81767 -0.54608 -0.17277
221 1 -7.15032 -16.3338 -14.9768 0.58899 -0.72878 -2.56757
222 1 5.799 -6.24532 -12.2586 0.68777 0.73294 2.98527
223 1 27.6338 -0.444556 11.9635 0.37866 0.186 2.54321
224 1 24.0949 23.4094 18.0019 3.59275 -1.16682 3.45014
225 1 4.75533 17.4062 -1.05542 2.83861 -0.07054 3.18856
226 1 25.2473 -5.68394 9.96154 -11.0776 8.07775 -3.56548
227 1 9.05162 3.07857 -15.6293 1.93532 6.26599 -3.51007
228 1 -2.57514 -12.3623 -14.7317 -2.72414 6.09114 2.4415
229 1 -26.3778 -16.816 -19.4135 -1.94482 -0.89742 -1.33698
230 1 -12.3489 -19.3643 -6.36376 2.84561 0.8041 5.0785
231 1 7.06552 14.3844 -4.47788 1.8426 1.93089 -1.13969
232 1 -9.25379 -9.4268 -15.8854 5.07613 2.06321 -2.40328
233 1 17.9401 26.8214 -15.9871 -3.09276 0.58256 -3.24108
234 1 -12.7235 -1.98321 -15.4579 1.65035 1.50572 -3.57199
235 1 14.7072 27.3959 -26.1183 -0.26954 -0.73938 -0.72205
236 1 3.38294 22.0295 10.7439 0.56229 -1.71057 -1.56151
237 1 -7.25807 -14.1192 24.2402 0.51512 1.89845 -4.25391
238 1 4.97688 -5.87173 -2.01769 -2.436 10.1307 12.4418
239 1 4.11951 -22.7109 -22.2266 1.31647 0.14667 -1.48069
240 1 16.6612 18.1939 14.6323 5.16879 4.43303 -1.24689
241 1 -17.6176 18.3147 21.2667 3.68835 -6.54554 -1.00943
242 1 15.4683 -20.6805 9.3327 0.97252 1.42284 -0.76177
243 1 8.23355 -19.7455 9.76485 1.14027 -1.21705 -3.47458
244 1 18.4989 -19.3613 24.3888 -7.34975 1.42404 0.68512
245 1 3.26493 -12.8301 11.5612 -0.29267 0.23238 -4.17037
246 1 15.1075 -3.72986 25.0989 4.26385 -2.39833 -0.47988
247 1 -6.40708 -2.21128 3.86505 -1.89617 2.00583 5.14291
248 1 -0.0354172 6.09318 11.6004 1.61341 -1.85528 1.85367
249 1 4.36754 18.3421 6.23716 -0.214657 1.32226 0.1021
250 1 -11.8941 13.6522 -12.0218 -0.4228 -0.93845 4.60103
251 1 -4.32069 -6.90906 10.2873 -3.4494 -3.8022 -3.22247
252 1 -1.18539 8.79225 -15.3081 -0.07986 0.20081 -2.95709
253 1 -7.41542 6.89587 21.673 3.54397 2.19924 2.13491
254 1 11.0944 -6.99138 1.41555 -6.89304 3.59304 -3.809
255 1 -8.65635 3.03473 16.4266 -2.4275 0.08799 1.88688
256 1 6.6871 -22.431 -27.4427 -0.13527 -5.73504 2.16863
257 1 -13.7405 -10.7133 7.12829 2.70351 -2.86229 -0.15495
258 1 -20.7052 -9.29087 -21.5487 -0.42044 1.40893 2.33535
259 1 -14.2222 4.51071 -12.9052 -8.11478 0.871194 4.38571
260 1 23.2363 -22.7582 22.262 9.75267 -3.62101 -5.33715
261 1 -19.7958 -4.15128 5.28308 -1.33848 1.56385 -0.0688
262 1 4.34098 16.334 -26.2679 -1.22799 1.02439 1.58483
263 1 1.17418 23.7163 -10.9868 -3.34903 -4.37467 2.43209
264 1 -27.0595 -23.3829 -23.2913 -2.7373 4.65743 -0.42081
265 1 -25.2807 1.13364 -6.34674 -6.16948 -1.39444 -4.73631
266 1 -21.3926 -19.1666 -13.6634 1.21997 -1.44224 1.94863
267 1 -11.4526 19.2207 13.5512 1.19087 1.24309 -0.35856
268 1 4.83794 7.4677 -26.8767 -4.57934 -4.07464 -8.65183
269 1 14.8691 13.4299 -23.9912 3.85848 2.66862 -2.44551
270 1 -15.4287 25.9043 -23.2187 1.62769 -1.47421 1.15151
271 1 11.0995 -15.9345 1.64951 0.4795 0.71888 -1.216
272 1 -15.2707 -17.3934 24.2497 -5.14138 -11.6419 -9.79178
273 1 25.4777 -25.2397 10.8255 0.13952 1.111 -1.69408
274 1 15.879 16.6246 20.4949 1.42366 2.08161 0.275577
275 1 -4.74407 -21.3974 -14.9153 11.2402 11.0039 9.75905
276 1 -20.9719 -22.6949 21.3567 -0.42159 0.04404 -0.04401
277 1 10.7415 -25.2912 -11.3704 1.43644 -1.84422 -1.8743
278 1 13.6981 5.76886 -24.4073 9.05002 -1.78829 2.01569
279 1 -11.0606 -15.4092 -18.1031 -3.93176 4.16652 0.76725
280 1 -11.5559 -14.0553 -0.325091 -1.97399 -2.99767 0.555175
281 1 -22.9111 7.92697 24.1115 3.00863 -9.57461 11.4715
282 1 0.915119 15.9998 -19.9104 3.78565 -4.75806 10.1306
283 1 -24.3827 2.46812 -11.3782 -0.84278 0.41346 0.57737
284 1 -21.3145 14.7397 19.3174 -2.54298 -1.48461 2.54045
285 1 7.08535 19.8808 18.4341 0.44062 3.20878 1.69584
286 1 -5.24803 27.3498 19.1795 0.095384 0.72949 -0.90026
287 1 20.224 -16.7852 -6.86626 -3.21115 -0.93024 -5.06242
288 1 24.0178 7.02801 15.5201 1.17769 -12.3631 -5.3508
289 1 7.97187 -25.5433 21.7285 -2.08534 1.22332 0.55636
290 1 25.3248 4.71643 -9.15862 4.12492 3.43195 4.58207
291 1 -20.6659 16.7906 -17.5529 4.20258 2.8873 3.11912
292 1 16.4864 24.91 24.3444 -0.84447 0.01697 -1.61089
293 1 18.1689 -23.9841 -5.77602 1.71481 4.85728 1.81392
294 1 -4.76906 -11.9795 -22.0347 -2.101 -3.15911 1.80378
295 1 -4.08832 -5.32707 -0.785006 -3.61985 -1.56583 3.95808
296 1 22.0899 18.805 17.3343 0.68321 -1.51907 -5.2005
297 1 -24.1167 -25.8339 11.9863 -0.52795 -3.67916 -1.74185
298 1 -11.9727 24.6153 -12.5972 1.1145 3.82193 1.44212
299 1 1.41375 -23.1932 26.4492 4.00583 1.15497 2.06351
300 1 -0.306398 -25.7435 -22.8331 0.791663 3.81361 -5.33347
301 1 24.2355 -10.8194 -24.2354 0.2254 -0.79918 -1.33052
302 1 6.68196 -9.88156 21.1005 -2.90677 3.59577 -2.47701
303 1 -15.3394 23.1941 19.4854 4.28976 0.44292 0.94969
304 1 12.5364 4.66586 15.0182 3.02989 -0.82101 5.36021
305 1 -3.68512 -23.1824 21.2681 -0.146065 -1.58184 1.53729
306 1 26.0304 -6.72929 -20.6273 0.02026 -5.53856 4.53758
307 1 3.42302 -11.0157 -16.5942 0.78749 2.3101 0.71188
308 1 23.1634 0.718839 -22.3745 1.26318 4.85403 -4.26995
309 1 3.02755 11.4723 20.4909 4.3985 3.17821 10.3716
310 1 -10.2906 24.2244 17.0298 1.60502 3.38698 1.76121
311 1 8.94026 22.1049 -20.8668 0.70003 -4.52453 2.66226
312 1 -21.2766 -15.5957 -20.2823 -2.34695 3.92864 0.41174
313 1 -23.135 20.6068 10.4522 -5.39878 -0.35375 -2.40283
314 1 16.0147 -18.399 -1.70051 -0.654531 -1.41059 -3.51588
315 1 12.102 24.8055 -12.1007 -1.64263 0.8868 1.57498
316 1 -3.88351 20.1652 17.7941 -0.388031 3.1843 6.61476
317 1 -15.7918 19.8298 4.05786 -4.0436 1.84096 -4.56105
318 1 27.0712 -19.3669 -2.56227 -6.78013 -1.41067 -1.4568
319 1 -0.954622 10.067 -8.96394 0.18889 3.87917 -0.18379
320 1 4.1166 -10.4689 -3.98866 0.051374 -10.0354 -1.76359
321 1 -27.1192 -1.04724 7.2923 1.82238 1.89367 1.06978
322 1 12.3363 21.6452 24.5277 -1.17515 -1.89722 4.2443
323 1 9.8838 -15.7875 -22.6784 1.11302 -1.43948 1.79264
324 1 -16.8157 -11.9447 -2.69977 4.52448 1.28361 -4.38718
325 1 -11.3559 -9.71795 -7.63397 4.70151 4.1431 -4.01808
326 1 -16.4121 -0.419663 -25.5331 -1.55552 2.54983 2.80584
327 1 6.0049 -13.4325 16.1494 1.77851 4.42083 6.55416
328 1 -16.9536 16.5088 -7.0305 -3.19457 -4.71816 1.16034
329 1 -4.13828 13.0673 -5.96538 3.58138 3.49812 2.72793
330 1 15.5764 19.1762 -11.9113 -2.32339 -0.17504 -1.26377
331 1 -26.8684 -21.2684 -16.3197 -2.0649 -0.98943 -4.89464
332 1 20.7547 25.2533 2.17541 0.878229 0.64126 -1.70559
333 1 -14.6715 14.0291 16.3718 2.0854 -1.32271 -1.85032
334 1 -1.34213 -17.5009 -14.5278 4.37471 -0.554743 -1.08822
335 1 19.5395 -22.552 12.6225 3.13672 -5.10613 -0.661328
336 1 8.58193 -23.7876 -6.73301 0.34822 -11.0373 4.85006
337 1 -18.942 9.76968 20.7988 -2.1749 -1.23447 -3.54115
338 1 1.61847 13.5973 13.9155 -5.60261 4.56903 -1.40881
339 1 -27.045 -8.87796 7.31924 6.88169 6.41185 2.84714
340 1 4.15764 24.174 -16.7509 0.57482 4.27903 -1.83522
341 1 8.66222 -1.71067 -2.02486 0.28004 -0.69496 -2.93547
342 1 0.500791 -10.8874 -8.52454 2.77246 0.268382 -1.65387
343 1 -16.9521 -19.4993 -26.5855 1.01694 3.17119 6.16077
344 1 11.006 -2.52442 -26.4361 -0.6717 0.657643 7.14364
345 1 -2.61989 5.22474 -9.91044 0.448903 -6.23664 -1.92492
346 1 11.7097 -22.1035 1.33388 8.31593 -10.6712 -6.8779
347 1 -27.3248 -21.3596 2.16509 3.34638 -0.87768 2.5467
348 1 11.1952 23.4072 19.6497 -2.7264 0.238721 -0.66558
349 1 -7.02477 17.966 8.58734 0.68813 0.2991 0.19235
350 1 -26.9662 -27.1074 22.5129 -0.77128 -0.32691 1.3675
351 1 -4.16535 1.68965 -18.1698 0.497056 -1.02945 -0.08164
352 1 3.56249 -21.7378 6.58574 -1.37337 -1.48975 3.9493
353 1 -12.8363 -25.8671 3.82532 -0.29504 0.9182 1.37238
354 1 10.6109 -1.83488 -8.49922 -1.05721 -0.642999 0.60458
355 1 2.65364 5.82435 -14.4136 1.38923 -1.10135 0.410563
356 1 -21.4922 -1.45424 -5.81496 7.92788 1.46544 2.1546
357 1 24.9101 -20.6425 -7.55974 -0.788642 -2.8989 -2.33092
358 1 14.2687 5.4595 -18.1223 1.18608 4.29818 -5.41434
359 1 3.01292 -1.24073 0.86352 -0.2569 -0.66407 1.31871
360 1 -21.5605 -21.2952 9.85353 1.91971 0.09012 1.37105
361 1 22.6263 22.7494 -15.3778 -0.55023 -4.43122 1.91306
362 1 23.3083 14.1633 -13.3392 5.2427 1.1864 0.71285
363 1 -8.30911 -16.2703 -4.29801 0.54748 1.00605 -1.56446
364 1 9.41506 -8.58497 -27.3246 0.24479 -0.38076 0.37174
365 1 -13.001 -12.5146 21.8162 -0.06706 1.67573 7.95198
366 1 0.0877235 -22.2105 -18.5944 -0.500695 -1.71076 6.34041
367 1 -27.582 27.539 -5.54806 0.973443 1.91346 3.30368
368 1 -27.3467 -6.78012 -7.28116 -0.13111 3.68545 -2.98964
369 1 -15.8178 1.3332 -9.62523 0.041668 1.38688 3.4428
370 1 25.0535 -25.5474 -0.818728 0.777466 -0.40264 -2.94015
371 1 9.64903 -27.3641 -1.69739 -0.01888 1.69377 -0.910498
372 1 18.8206 -10.1139 1.14164 -2.46987 -4.42016 4.57057
373 1 -4.64736 24.6825 6.84846 -2.26601 1.63022 -2.94596
374 1 -14.9353 -10.3264 -18.3055 -4.1404 -5.67736 -3.05371
375 1 -4.33523 -7.85062 -19.0334 2.90301 -0.9449 1.18866
376 1 12.6659 -10.8746 3.81435 6.75793 -6.29733 6.48731
377 1 -19.0428 26.5138 18.2557 1.84025 -0.38012 1.40652
378 1 26.633 -2.91576 18.3689 -0.32767 0.02029 -0.37466
379 1 -13.2415 19.4719 -11.8969 0.0222 -4.91347 -5.05575
380 1 13.6454 11.8019 15.8184 -4.87457 -3.80603 3.57604
381 1 -15.8226 2.67312 -17.6722 0.027485 -2.70086 2.01002
382 1 -11.5177 -1.59794 21.7838 -0.86173 -0.47168 -1.05753
383 1 -13.7268 15.436 -0.246918 -3.67613 -0.84925 -0.8696
384 1 -13.5418 -2.44763 25.9618 6.54748 -3.1444 -3.48498
385 1 8.64344 -8.47935 -16.123 -0.98887 0.06442 0.70172
386 1 10.0893 -21.2855 -22.8893 -3.05338 -0.73058 -1.94095
387 1 25.1355 8.6501 -4.36299 0.3746 -0.335476 -0.03668
388 1 -6.90926 -20.5821 -1.9254 0.57781 -1.82078 -4.35661
389 1 1.56237 -4.52192 -15.6655 -1.79789 0.511685 -3.05469
390 1 -21.7387 1.52258 -18.4325 -1.46617 -1.21143 1.14691
391 1 -16.5972 -13.2102 26.7652 2.46566 6.72686 2.49054
392 1 11.4623 18.3464 17.2087 -1.80247 0.16145 -0.48639
393 1 6.58718 -25.4757 6.22702 0.24431 -2.11526 -0.48286
394 1 -25.8803 19.7542 2.09545 0.36028 -0.93705 0.343044
395 1 -20.2707 16.6625 -23.5194 -2.5088 -0.23793 -1.7339
396 1 -15.6012 6.7873 17.9165 2.08336 0.281294 -1.60385
397 1 17.4787 13.3551 9.36214 -0.333 0.53104 1.51392
398 1 14.4422 14.7446 25.7683 -2.14748 -0.82398 -0.52209
399 1 -22.7887 1.50689 -23.0554 -0.633899 1.34044 -2.22154
400 1 -12.6947 11.5841 3.59793 -8.85422 7.41758 0.1446
401 1 7.23022 14.2856 16.4764 1.72032 -5.55489 -6.22662
402 1 -19.881 27.0232 9.01338 -1.02537 0.6102 0.247682
403 1 -18.1008 -17.7834 -9.18307 -3.14503 0.12959 -1.97904
404 1 10.5721 16.6001 -13.4428 -0.05051 -2.73551 1.52941
405 1 20.2097 21.7635 11.4677 -0.0138 2.32233 2.228
406 1 -6.95225 -23.5056 -26.1595 -7.23952 -3.5233 2.60908
407 1 -11.1921 3.91921 20.6429 -3.14449 0.58516 -1.66314
408 1 -9.11022 11.1739 -21.0789 -0.0355 0.375673 1.64527
409 1 -4.26187 -25.9089 -2.94211 -3.95168 -0.63112 1.51645
410 1 9.61192 -20.6629 -3.34214 4.8964 5.11506 6.65863
411 1 26.9974 23.1411 -20.928 2.79311 9.34697 2.81253
412 1 4.68469 7.76048 5.57417 2.17228 -1.85443 2.84988
413 1 12.7187 -11.1369 19.3934 -0.8065 5.02257 0.324977
414 1 -8.59351 14.3559 -3.02152 0.92554 -3.47022 -0.621917
415 1 11.6978 15.0593 11.7622 0.820737 0.20665 -1.13211
416 1 9.45918 -7.97728 -4.94025 -3.29449 -3.24185 -1.22904
417 1 -10.9938 -21.2596 -17.7562 -0.44558 -0.677895 1.84901
418 1 24.297 -24.9301 -12.6888 -2.0929 -2.40067 1.68106
419 1 -26.5505 4.60913 12.2081 -7.30363 0.377324 0.94988
420 1 24.2657 -25.6175 16.7486 3.15738 -3.34985 -3.31989
421 1 -0.0134894 -15.2446 5.00016 7.64464 -0.58853 1.58409
422 1 16.3024 -5.68092 1.75226 6.86806 -0.38592 -0.51672
423 1 -22.2417 12.1656 -27.2415 -3.1692 -3.93066 -0.560477
424 1 24.5061 7.91831 20.1978 5.35007 8.2151 10.4624
425 1 17.1167 -2.26242 8.87356 0.65553 1.27486 -3.6387
426 1 0.635412 14.4398 -13.1631 -4.68794 -0.4581 1.86406
427 1 -27.6813 -19.4736 7.19348 0.85984 -2.31905 1.62641
428 1 -27.5171 -16.9482 24.1154 -1.78839 -0.6885 0.20328
429 1 -16.2488 3.9091 7.0854 -0.82686 -0.34252 -0.5445
430 1 -7.17289 -18.6848 2.3291 -3.91177 -3.1588 5.71723
431 1 12.1188 -19.5419 -13.976 0.560294 0.733471 3.03804
432 1 -20.5968 1.6698 3.14202 -2.89943 -2.47158 3.90345
433 1 -7.5842 0.756276 -7.31406 0.023448 -2.28244 -0.52878
434 1 22.3861 26.9051 22.7832 -1.96756 1.19813 0.42376
435 1 14.156 4.13857 -12.6184 -3.00169 1.45125 -3.48117
436 1 -2.21257 -24.4986 9.09728 5.8469 4.8398 -9.24301
437 1 -1.96583 -14.0659 23.6836 -1.53556 6.00904 -0.23725
438 1 13.0503 -7.49888 -9.73779 0.497825 -0.54143 -0.904324
439 1 -23.9412 23.8161 -2.72103 -5.54613 3.72914 0.45793
440 1 -25.7934 19.5532 -22.5923 1.33057 -4.53034 -1.73177
441 1 -7.53936 22.7003 -9.92059 -1.52137 -1.71152 1.07183
442 1 16.0161 25.4389 -2.38833 -3.97637 -0.70746 1.25489
443 1 5.13404 -20.1891 22.8585 -2.35628 -2.4654 4.36806
444 1 -27.6622 -27.5844 -27.3993 -0.913337 -5.88088 -0.534176
445 1 3.08753 5.15754 1.19962 0.48696 -2.16029 -1.75989
446 1 6.73877 10.7854 -12.7467 -1.20047 2.48792 8.00491
447 1 4.85139 -14.6104 1.26908 -2.39957 -1.79074 -0.791655
448 1 -5.97233 -0.0688195 -23.1691 4.43704 1.27222 0.26494
449 1 -26.8448 14.1483 -12.748 -0.2115 0.35448 0.182292
450 1 -18.6683 10.5567 1.83438 0.602791 1.68173 -2.39769
451 1 -1.65451 -0.435837 2.28217 -1.23739 0.629759 1.26443
452 1 13.4849 -17.8399 -19.501 1.86613 1.21228 3.16055
453 1 -10.5134 -3.96533 -0.247497 1.23811 -0.30848 2.12009
454 1 -13.6369 2.70761 12.1385 1.53461 1.79723 -0.08292
455 1 23.6566 12.6963 -8.14266 5.37887 8.24554 2.11561
456 1 -3.34256 -10.9295 -4.21083 -0.35282 0.457748 0.56115
457 1 18.3611 13.5396 15.6323 5.38537 1.43958 0.038854
458 1 -2.33493 -6.82134 23.8016 0.14367 2.75396 1.06224
459 1 -12.4613 8.1456 14.039 -2.37307 -2.51527 -0.65015
460 1 10.3756 6.04601 21.8532 2.8844 1.43288 0.08268
461 1 -20.8408 21.195 -0.58041 4.73355 -0.68901 1.27174
462 1 0.392951 -19.4212 2.6478 -2.96817 -1.29375 -1.5124
463 1 23.5459 14.6796 -24.2668 1.60968 -2.71642 -0.65141
464 1 -8.52635 16.122 -22.7407 0.05444 -1.77018 -1.53329
465 1 10.9199 -24.268 26.5618 -0.80886 0.29718 -4.25463
466 1 0.370282 -19.739 -8.9173 0.77777 -0.13315 -0.35651
467 1 -10.4618 -24.5071 12.5873 1.8836 -2.60676 -0.700981
468 1 0.725469 6.26471 -4.86475 -8.73401 -8.10397 10.8108
469 1 7.25345 -2.92566 5.03127 3.44338 -1.08267 1.25724
470 1 -3.03749 9.49943 26.6602 -3.12089 -2.77198 2.90064
471 1 17.8577 -2.56814 -22.6439 1.98705 0.648352 -0.32047
472 1 19.8845 -3.27092 -7.97699 -1.5746 -0.23548 2.0893
473 1 -24.1213 27.1925 18.5232 -1.99214 0.90818 -4.15381
474 1 -6.75427 3.82725 5.55277 1.33213 4.73494 -7.46578
475 1 -24.8759 27.2633 -22.2451 1.29583 -4.30146 1.16083
476 1 16.1084 -17.899 19.5569 0.57538 -0.56884 -0.14184
477 1 -16.1027 -12.807 -23.1741 1.44184 -4.57217 0.91619
478 1 20.8593 8.88415 -7.65388 -4.53465 -4.70621 2.94636
479 1 26.4404 -5.26628 4.53429 -3.30368 3.75301 -4.84639
480 1 18.9715 23.79 -6.24354 -4.71858 -0.74459 -1.37214
481 1 -26.4099 25.9455 14.3869 -2.06377 0.901159 1.19638
482 1 14.2213 -11.0893 -3.18429 1.75055 -3.78917 1.75354
483 1 -19.7327 4.57132 -1.91023 3.78255 1.33186 -5.34171
484 1 -9.63054 -14.1037 4.94312 -6.92497 1.96858 1.52814
485 1 16.9831 -11.5805 16.282 3.77577 -2.64616 -2.88749
486 1 -15.6389 -16.5214 3.3249 1.83687 4.16873 -5.0448
487 1 -22.8859 18.3306 -11.7055 -0.43065 -0.604145 -2.48025
488 1 20.9205 -2.58237 22.791 0.43549 -9.79022 0.289432
489 1 6.04236 17.6686 -20.235 5.17836 0.566968 -2.83114
490 1 2.91802 11.606 -17.4611 -0.31883 -4.63868 -0.46298
491 1 -6.33405 -0.0898841 -13.4464 -1.986 1.96617 -4.52809
492 1 6.75103 13.2614 8.74049 1.92941 2.19739 3.2807
493 1 -2.45835 6.1634 20.1713 0.70342 -0.667847 -0.60192
494 1 0.39242 4.89224 24.2576 -2.34004 -2.60683 1.05413
495 1 3.32948 -19.9507 -14.4111 -3.62708 1.06011 0.45919
496 1 -21.471 -20.1417 4.23945 -3.93617 4.28915 -2.32082
497 1 -2.91027 -27.6495 -27.0982 2.73145 -0.722117 -0.10627
498 1 16.7947 16.857 -3.53821 0.659533 0.21646 3.24586
499 1 26.5509 22.577 -4.79854 0.5215 -0.358079 -2.39768
500 1 -14.2789 8.98245 -18.023 0.93192 -3.98888 -2.4645
501 1 -1.84882 2.29037 14.2804 2.26583 2.39109 6.5564
502 1 -0.0432519 -3.42492 13.18 2.00239 -0.641851 -1.30911
503 1 13.067 -12.9527 11.9889 1.6892 -0.628712 1.10995
504 1 -11.596 10.4623 19.067 -1.63263 0.87592 1.69475
505 1 14.5628 8.18987 26.2328 5.5802 -2.35248 -1.88148
506 1 13.6934 22.1055 -7.09676 -0.381526 -2.44709 0.184454
507 1 -26.0594 -19.3736 -10.7942 0.87436 1.5166 -0.85606
508 1 -10.0512 19.8032 -27.0736 5.69675 3.23641 -3.31513
509 1 27.2117 17.2421 15.9974 -0.97423 1.39624 -0.81184
510 1 -6.02858 4.80402 11.2598 3.61094 6.91665 2.1702
511 1 16.8053 17.8256 9.13973 -3.66253 -0.868965 -7.35046
512 1 2.17691 2.371 -18.1898 -0.094884 -4.53588 1.5041
513 1 -13.5603 27.442 -7.89265 0.820106 6.51321 -3.67278
514 1 22.244 -2.21497 6.35949 -4.87651 -3.00756 -3.19398
515 1 -3.43943 12.3408 22.1341 8.56889 0.84586 -3.27163
516 1 -15.5102 -18.1711 -20.4381 0.31763 -3.16989 -0.85772
517 1 0.764178 -8.82671 9.56112 0.94528 0.11553 -1.60906
518 1 -4.09213 -22.0579 4.54513 3.72259 0.247062 1.58519
519 1 -20.5192 -8.13441 12.3672 -1.2372 -4.89308 3.80536
520 1 -13.9408 5.49836 -22.3239 1.32744 0.40509 2.50709
521 1 -24.1162 -2.26393 2.37906 1.74139 0.268132 0.96533
522 1 18.1605 4.38631 7.72751 0.03088 1.08967 1.74341
523 1 -8.64988 4.02319 -20.8912 -1.30838 2.26411 -4.03373
524 1 1.97082 -22.512 11.5202 3.00217 -1.01015 -1.97139
525 1 -24.3315 -4.24157 -3.03096 -7.3327 -2.34426 -2.07937
526 1 -17.0366 15.0443 -12.8496 0.40804 0.655985 -2.76354
527 1 -20.5149 16.8735 26.2012 -1.14474 4.66643 2.05327