# Solvated C25
 2 atoms
 1 bonds
 0 angles
 0 dihedrals

 0 impropers
 1 atom types
 1 bond types

 -5.0 5.0 xlo xhi
 -5.0 5.0 ylo yhi
 -5.0 5.0 zlo zhi

 Masses

 1 12.010
 
Atoms

1 1 1 0.0 0.365196 -0.925869 1.521485
2 1 1 0.0 0.524365 -1.869302 1.851248

Bonds

1 1 1 2
