ITEM: TIMESTEP
0
ITEM: NUMBER OF ATOMS
12
ITEM: BOX BOUNDS pp pp pp
0.0000 48.6977
0.0000 48.6977
0.0000 48.6977
ITEM: ATOMS id type xu yu zu fx fy fz
1 1 5.811328 36.279163 12.529194 -18.230459 -3.655951 4.544968 
2 2 8.859488 38.313557 13.261022 11.299302 -15.944236 -12.425000 
3 3 8.459300 42.027760 13.476835 -21.241919 8.873287 28.940802 
4 4 9.451595 43.419418 10.139957 -18.285679 -2.038323 17.141504 
5 5 7.869451 40.405499 8.467334 -9.007913 -16.053253 -27.266157 
6 6 4.333539 40.928810 9.791945 -20.239567 -0.993499 21.849936 
7 7 1.104856 41.321960 7.948158 -2.756123 16.985691 -18.021051 
8 8 46.528885 41.421387 9.811014 -1.128220 7.290495 39.464474 
9 9 44.725739 40.759411 6.569173 -23.561085 10.742151 3.836180 
10 10 43.585289 37.209118 5.701766 -15.663599 -7.876785 13.868589 
11 11 45.653259 34.479401 4.019192 10.508112 17.589483 -13.410261 
12 12 44.270386 31.328203 2.480403 -5.543580 8.917781 17.338387 
ITEM: TIMESTEP
1
ITEM: NUMBER OF ATOMS
12
ITEM: BOX BOUNDS pp pp pp
0.0000 48.6977
0.0000 48.6977
0.0000 48.6977
ITEM: ATOMS id type xu yu zu fx fy fz
1 1 6.733563 36.068924 12.476711 -10.306912 -14.136600 19.154015 
2 2 9.311213 38.766991 12.866663 13.060976 -24.159678 -9.799739 
3 3 8.096573 42.211308 13.518982 12.984395 35.496822 19.370684 
4 4 9.193142 43.778194 10.257979 12.350486 9.809722 3.513674 
5 5 7.963545 40.801109 8.258030 16.345646 6.971296 11.959059 
6 6 4.549483 40.516174 9.908267 1.758902 -28.872803 43.830910 
7 7 1.001024 41.222946 8.767358 19.395342 17.180332 -19.572557 
8 8 46.027885 41.248798 9.570082 7.950560 -2.233298 17.159859 
9 9 45.207672 40.248634 5.978644 22.460854 -5.807927 8.341675 
10 10 43.195915 37.121254 5.548542 -1.877081 12.845989 27.074808 
11 11 45.060101 34.136292 4.058404 6.360930 11.549844 2.063359 
12 12 43.956150 31.069214 2.223355 -42.870724 -0.140959 -20.054165 
ITEM: TIMESTEP
2
ITEM: NUMBER OF ATOMS
12
ITEM: BOX BOUNDS pp pp pp
0.0000 48.6977
0.0000 48.6977
0.0000 48.6977
ITEM: ATOMS id type xu yu zu fx fy fz
1 1 6.445064 35.960976 12.470835 -35.280636 -7.407270 -9.917757 
2 2 8.875743 38.864025 12.775309 23.675690 -27.474033 -8.682281 
3 3 7.748400 42.436756 13.068475 26.371672 7.694269 22.763790 
4 4 8.481970 43.631443 9.513976 -0.565989 11.118553 8.916419 
5 5 7.542357 40.348785 7.927971 25.549320 12.232574 -6.212029 
6 6 4.270175 40.243889 9.748382 13.276242 -17.237913 -15.060728 
7 7 0.846733 40.757565 8.265940 30.955202 -19.130062 -21.040949 
8 8 46.322517 41.901550 9.712634 14.851911 2.476700 0.718798 
9 9 44.773754 40.987602 6.330380 2.197515 29.723310 10.689684 
10 10 43.463875 37.510361 5.929695 -17.762236 17.334169 -5.480670 
11 11 45.173645 34.637283 4.195014 -6.281756 -8.855734 -16.813524 
12 12 44.500736 31.372557 2.385834 -1.551111 0.811198 34.121655 
ITEM: TIMESTEP
3
ITEM: NUMBER OF ATOMS
12
ITEM: BOX BOUNDS pp pp pp
0.0000 48.6977
0.0000 48.6977
0.0000 48.6977
ITEM: ATOMS id type xu yu zu fx fy fz
1 1 6.689669 36.139694 12.517975 -4.053274 -19.097662 3.932961 
2 2 9.067656 39.027023 12.921001 -4.215797 -3.303811 27.270157 
3 3 7.435980 42.386703 12.933775 -36.631058 44.111141 3.343979 
4 4 8.639901 43.593307 9.623769 4.540604 0.528880 21.411625 
5 5 7.562559 40.384415 7.928903 3.802785 -7.551488 0.794169 
6 6 4.231746 40.462376 9.735642 18.473112 -21.417257 24.610142 
7 7 0.918181 40.923176 7.993071 24.543262 -31.370005 -29.738224 
8 8 45.999252 41.521130 8.861660 3.737273 19.514000 6.482664 
9 9 44.587029 40.029251 5.657032 -29.701157 17.632687 15.976522 
10 10 43.208256 36.485447 5.992150 5.209264 -15.074163 0.167037 
11 11 45.308208 33.628811 4.802630 -3.532851 -20.581150 2.560570 
12 12 44.293663 30.434006 3.088354 -9.607541 -9.938743 -15.862158 
ITEM: TIMESTEP
4
ITEM: NUMBER OF ATOMS
12
ITEM: BOX BOUNDS pp pp pp
0.0000 48.6977
0.0000 48.6977
0.0000 48.6977
ITEM: ATOMS id type xu yu zu fx fy fz
1 1 7.965680 35.941338 13.294691 -7.519012 -35.131977 -6.706205 
2 2 9.873516 39.178955 13.145604 35.859234 -22.405291 40.454639 
3 3 7.835563 42.369045 12.885551 -1.123002 33.731739 10.686275 
4 4 9.126200 42.907619 9.316004 -1.962111 48.538582 0.303686 
5 5 7.611979 39.576996 8.470651 18.845844 5.791315 -25.944399 
6 6 4.317009 40.199776 10.331217 -28.110929 -18.406073 33.396606 
7 7 0.935024 40.061600 8.616818 1.596886 26.206089 -17.752344 
8 8 46.072014 41.119705 9.289404 -27.378742 8.699878 23.769394 
9 9 44.827648 39.654881 6.059967 6.870968 20.590845 -25.579388 
10 10 43.397144 36.243698 6.348970 -30.722597 5.027394 7.774638 
11 11 45.175064 33.148693 5.202363 10.310778 23.997686 15.042543 
12 12 44.241123 30.409660 2.878160 14.221354 -2.482232 -15.409559 
ITEM: TIMESTEP
5
ITEM: NUMBER OF ATOMS
12
ITEM: BOX BOUNDS pp pp pp
0.0000 48.6977
0.0000 48.6977
0.0000 48.6977
ITEM: ATOMS id type xu yu zu fx fy fz
1 1 7.598923 36.145855 12.632266 14.543047 0.424692 -10.556952 
2 2 9.871929 39.171215 13.068787 -6.909442 -20.320000 0.190896 
3 3 7.808845 42.220055 12.415713 -10.509977 18.868408 14.571436 
4 4 8.830055 42.851978 8.874674 36.409729 11.469097 7.896809 
5 5 7.688052 39.399315 7.765049 18.190115 2.552288 -25.219376 
6 6 4.686929 39.180462 9.959351 18.925158 4.276887 33.414070 
7 7 1.336504 39.336246 8.179424 8.386314 9.877617 -10.468575 
8 8 46.600529 40.449150 9.255311 4.102972 30.360081 30.074003 
9 9 44.392387 39.379925 6.385242 -15.622220 1.691373 22.208086 
10 10 43.106712 35.819412 6.001208 14.060987 -21.910833 1.521489 
11 11 45.333786 32.998299 4.873697 54.008156 3.812045 1.273789 
12 12 45.113708 30.652420 1.956247 -15.102156 -14.888279 -25.163782 
ITEM: TIMESTEP
6
ITEM: NUMBER OF ATOMS
12
ITEM: BOX BOUNDS pp pp pp
0.0000 48.6977
0.0000 48.6977
0.0000 48.6977
ITEM: ATOMS id type xu yu zu fx fy fz
1 1 7.477858 36.040844 13.443090 24.380781 -21.032242 -14.739632 
2 2 9.969646 38.795437 13.450047 23.676569 27.835188 1.256190 
3 3 8.726785 42.402229 13.707170 -0.001600 -5.133059 5.396604 
4 4 9.221007 43.261765 9.982284 -1.177669 0.354673 14.725574 
5 5 8.315378 39.733463 8.939342 9.358465 -21.842499 -3.452750 
6 6 4.954553 39.698936 10.693723 4.484642 4.047798 13.979320 
7 7 1.640719 39.567741 8.824841 17.427122 31.166882 -14.498296 
8 8 46.734207 39.892857 10.122895 11.867007 -8.010960 0.673531 
9 9 44.633621 38.791241 7.123867 -24.443336 28.727398 -11.395819 
10 10 43.001503 35.493015 6.235060 -23.814129 7.286697 8.363726 
11 11 45.292858 32.697006 5.179068 11.788641 -2.027383 4.972853 
12 12 44.739624 30.561974 2.128919 5.149257 30.535116 2.052445 
ITEM: TIMESTEP
7
ITEM: NUMBER OF ATOMS
12
ITEM: BOX BOUNDS pp pp pp
0.0000 48.6977
0.0000 48.6977
0.0000 48.6977
ITEM: ATOMS id type xu yu zu fx fy fz
1 1 7.481231 36.034630 13.332430 -23.239958 -4.485695 16.621334 
2 2 9.890355 38.881298 13.162226 24.111805 4.013083 15.151321 
3 3 8.505874 42.428928 13.429520 -11.345396 15.919698 23.458872 
4 4 8.796290 43.030754 9.686502 11.516778 16.932550 -17.377966 
5 5 7.099290 39.817268 8.797891 28.758543 -20.420176 8.092649 
6 6 3.979078 40.089005 10.856422 10.208341 15.093809 25.437834 
7 7 0.521405 39.777039 9.565187 3.976025 23.452265 -31.029448 
8 8 45.613266 39.901558 10.616940 -15.175611 8.457939 32.025467 
9 9 44.010235 39.171341 7.280043 -31.967955 -2.936851 13.322157 
10 10 42.795605 35.587738 6.921663 -28.482592 1.132393 -11.841356 
11 11 45.168823 32.952000 5.663573 13.955130 -20.348738 11.098196 
12 12 44.055027 30.753616 2.814902 8.271196 6.184053 -13.057651 
ITEM: TIMESTEP
8
ITEM: NUMBER OF ATOMS
12
ITEM: BOX BOUNDS pp pp pp
0.0000 48.6977
0.0000 48.6977
0.0000 48.6977
ITEM: ATOMS id type xu yu zu fx fy fz
1 1 6.948624 35.808475 13.936920 -9.026542 -22.683500 0.490839 
2 2 9.691314 38.234398 13.654701 38.884087 -3.154540 -0.606184 
3 3 8.490480 41.818359 13.961429 -25.466356 7.562335 21.092510 
4 4 9.833210 42.648243 10.581013 1.192110 15.833888 1.557589 
5 5 7.877448 39.828232 8.890255 25.362850 1.833130 7.943283 
6 6 4.836447 40.074486 11.180256 -8.260370 -24.307695 -4.624351 
7 7 1.329426 40.277237 9.915648 9.249727 14.508621 -24.466497 
8 8 46.366455 40.076824 10.695454 14.652467 7.904037 -18.278872 
9 9 44.561138 39.373497 7.455120 13.420849 28.344540 -20.947975 
10 10 43.039833 36.031052 7.073947 -32.879200 32.584419 -3.729916 
11 11 44.747845 33.173290 5.337601 11.099386 21.711590 -3.303980 
12 12 43.837257 30.417740 2.978368 -22.288462 -21.408976 -4.264333 
ITEM: TIMESTEP
9
ITEM: NUMBER OF ATOMS
12
ITEM: BOX BOUNDS pp pp pp
0.0000 48.6977
0.0000 48.6977
0.0000 48.6977
ITEM: ATOMS id type xu yu zu fx fy fz
1 1 7.364035 36.093140 14.889770 1.271764 -2.789908 13.014590 
2 2 9.950494 38.643826 13.867107 -1.319959 -27.083076 26.781145 
3 3 7.917876 41.782642 13.469326 -7.099866 12.977701 15.501660 
4 4 9.718581 42.827396 10.278313 -4.042805 15.689014 17.264406 
5 5 7.994294 39.980721 8.597571 8.110043 -19.348524 -0.254084 
6 6 5.002454 39.577545 10.923258 -3.978510 -36.781349 36.828045 
7 7 1.580080 39.113068 9.289617 19.008963 -11.937644 3.432472 
8 8 46.639847 38.969299 10.224779 34.052086 26.535173 11.802028 
9 9 44.785366 39.324547 7.000416 7.004194 20.433807 6.641666 
10 10 42.987724 36.033142 6.422101 -4.644166 -2.082958 24.309072 
11 11 45.131203 33.286415 4.934978 11.660576 3.405805 27.291374 
12 12 43.851593 30.895073 2.364732 -5.085689 -16.542820 -11.765061 
ITEM: TIMESTEP
10
ITEM: NUMBER OF ATOMS
12
ITEM: BOX BOUNDS pp pp pp
0.0000 48.6977
0.0000 48.6977
0.0000 48.6977
ITEM: ATOMS id type xu yu zu fx fy fz
1 1 7.476985 35.851711 14.360761 -6.243418 -24.493816 -21.001169 
2 2 10.252850 38.122669 13.368074 19.085318 -20.553959 20.915068 
3 3 8.978451 41.621262 12.632886 -40.914211 -7.240045 -3.514732 
4 4 10.126118 42.481121 9.122191 19.034376 5.410779 -10.905309 
5 5 7.926142 39.830498 7.539523 -3.159500 -18.201286 -39.365231 
6 6 5.659457 39.353889 10.443270 0.246956 -24.289930 24.782881 
7 7 2.019059 38.848682 9.529175 -21.012257 7.711125 -49.766113 
8 8 47.149696 39.053116 10.668140 -22.471720 4.141006 23.519968 
9 9 45.300938 38.456963 7.376354 -38.094898 14.399162 -8.283409 
10 10 43.617664 35.212730 6.362622 -17.751852 5.234532 30.677092 
11 11 45.359734 32.810463 4.028018 5.821328 25.480967 -22.779503 
12 12 43.912231 30.951450 1.142801 16.556046 15.091198 -1.888880 
ITEM: TIMESTEP
11
ITEM: NUMBER OF ATOMS
12
ITEM: BOX BOUNDS pp pp pp
0.0000 48.6977
0.0000 48.6977
0.0000 48.6977
ITEM: ATOMS id type xu yu zu fx fy fz
1 1 8.082309 35.581287 14.295016 0.763157 -6.413227 -15.822582 
2 2 10.286441 38.374817 13.050541 7.607344 3.363166 18.995367 
3 3 9.407804 41.801598 11.846594 -17.786482 6.197924 23.536303 
4 4 10.063847 41.743050 8.146764 48.522949 6.587549 -0.308804 
5 5 7.456356 39.185898 7.348756 10.512663 -33.684353 -11.262159 
6 6 5.075699 39.468784 10.301417 12.464754 -28.504173 14.296690 
7 7 1.342776 39.949459 9.711083 24.874140 7.848886 -19.862486 
8 8 46.652569 39.159565 11.272587 24.655432 -14.681167 1.465410 
9 9 44.711895 38.647823 8.009235 -10.328074 18.553736 -11.653495 
10 10 43.183331 35.309444 7.241135 -17.102730 8.803354 -0.224653 
11 11 44.560070 33.366165 4.317645 18.209185 10.877024 -21.244129 
12 12 42.879135 31.408180 1.458178 -22.091501 -5.407413 -15.473575 
ITEM: TIMESTEP
12
ITEM: NUMBER OF ATOMS
12
ITEM: BOX BOUNDS pp pp pp
0.0000 48.6977
0.0000 48.6977
0.0000 48.6977
ITEM: ATOMS id type xu yu zu fx fy fz
1 1 7.841962 35.706669 13.484015 -25.799749 2.392972 -20.948286 
2 2 10.265903 38.218872 12.033137 5.421519 -1.019696 37.972454 
3 3 9.050334 41.778721 11.445428 -7.919901 -2.377208 32.339912 
4 4 9.435901 41.139565 7.756460 43.494823 25.405378 -24.127634 
5 5 7.082950 38.148579 7.678199 16.093142 -16.329681 0.272409 
6 6 4.792653 39.143898 10.637158 3.349215 -30.146929 -4.654949 
7 7 1.056153 39.211239 9.998896 -21.382919 -2.678961 -40.328812 
8 8 46.474873 38.636871 11.796636 7.997184 -1.965179 -3.894923 
9 9 44.463543 37.685795 8.691061 7.478713 -14.879817 -4.803400 
10 10 43.134430 34.263214 7.918624 -5.525126 2.043433 9.870980 
11 11 44.848331 32.519756 5.002766 -4.717193 22.765463 46.896702 
12 12 42.932545 30.903368 2.138421 -10.005876 15.873545 1.065078 
ITEM: TIMESTEP
13
ITEM: NUMBER OF ATOMS
12
ITEM: BOX BOUNDS pp pp pp
0.0000 48.6977
0.0000 48.6977
0.0000 48.6977
ITEM: ATOMS id type xu yu zu fx fy fz
1 1 8.909994 35.196831 13.016362 16.115263 -13.098065 -6.865477 
2 2 10.787850 38.286137 11.921600 5.131246 -18.218410 33.293045 
3 3 8.719379 41.372486 11.416548 6.810904 19.893890 -0.619293 
4 4 9.065492 41.425098 7.592113 5.838750 9.486460 -28.856680 
5 5 7.920760 37.870956 7.286520 21.109453 -21.097763 -3.610397 
6 6 5.182785 38.263103 9.910823 -2.719269 -4.811439 -8.276304 
7 7 1.521305 38.723911 9.165861 3.048529 6.616685 -37.167591 
8 8 46.927650 38.582474 11.000002 12.716394 -13.978284 -8.683012 
9 9 45.099251 38.026421 7.767467 1.396278 10.626247 -8.547739 
10 10 43.980408 34.485344 7.625389 6.440578 8.819882 28.220488 
11 11 45.291496 32.290512 4.928384 39.981979 9.878365 41.535427 
12 12 42.955593 30.234673 2.814900 -13.526974 36.911827 -0.374661 
ITEM: TIMESTEP
14
ITEM: NUMBER OF ATOMS
12
ITEM: BOX BOUNDS pp pp pp
0.0000 48.6977
0.0000 48.6977
0.0000 48.6977
ITEM: ATOMS id type xu yu zu fx fy fz
1 1 8.602181 35.180916 12.949923 -12.154648 -20.919256 -36.714725 
2 2 9.542959 38.843075 12.407061 -16.683905 -45.319523 30.347523 
3 3 8.567646 41.823574 10.371506 2.289890 19.602036 34.880508 
4 4 9.902640 40.304352 7.129693 -9.318310 5.873884 -26.085314 
5 5 7.718729 37.321701 7.449804 3.440501 3.971498 0.572141 
6 6 4.849731 37.974831 9.861419 -4.280768 -20.807581 -7.187572 
7 7 1.197687 38.583584 9.228689 -8.654786 -3.361278 -25.943996 
8 8 46.708981 39.053474 11.154999 9.943327 -2.935552 -3.386749 
9 9 44.904892 37.833393 8.078104 -19.878458 9.259665 9.309721 
10 10 43.772697 34.222218 8.360803 -8.507327 8.871101 35.762169 
11 11 45.118065 31.737179 5.782279 13.718048 1.953093 0.011862 
12 12 43.341084 30.348816 2.772367 6.935495 8.897169 0.646811 
ITEM: TIMESTEP
15
ITEM: NUMBER OF ATOMS
12
ITEM: BOX BOUNDS pp pp pp
0.0000 48.6977
0.0000 48.6977
0.0000 48.6977
ITEM: ATOMS id type xu yu zu fx fy fz
1 1 8.361623 35.152771 13.475194 -19.760820 -25.877954 7.316422 
2 2 9.916700 38.450363 12.668839 32.104511 -5.435942 19.135014 
3 3 8.228255 41.413647 10.997781 -13.815474 19.752548 0.841409 
4 4 9.216964 40.367592 7.531261 22.803102 23.651234 -16.151651 
5 5 7.320009 37.135918 7.898403 6.038896 -26.858412 6.846641 
6 6 4.596038 38.607029 10.078601 4.016858 -0.175389 18.355017 
7 7 1.010154 38.241016 9.106880 9.586481 6.290765 -8.475866 
8 8 46.330162 38.283722 10.818072 -15.700867 -5.228749 -5.966318 
9 9 44.430901 36.439739 8.131023 17.396519 42.494835 -16.138729 
10 10 42.941929 32.952240 7.964711 -36.326824 -7.400057 -3.011684 
11 11 45.079041 30.865902 5.649423 34.651440 8.356461 -20.480623 
12 12 43.190659 29.186171 2.807146 16.747845 27.129560 -1.652950 
ITEM: TIMESTEP
16
ITEM: NUMBER OF ATOMS
12
ITEM: BOX BOUNDS pp pp pp
0.0000 48.6977
0.0000 48.6977
0.0000 48.6977
ITEM: ATOMS id type xu yu zu fx fy fz
1 1 8.952261 34.817612 13.610189 -20.480625 -5.990825 -18.685246 
2 2 9.822913 38.499458 13.014522 2.368249 12.198954 1.564038 
3 3 8.243097 41.553894 11.366340 12.812191 4.850914 -8.659670 
4 4 9.338677 40.669960 7.848471 18.300802 17.464970 8.035722 
5 5 7.659794 37.287819 7.679643 15.431538 -24.414757 4.944003 
6 6 4.937102 38.478230 10.017556 -14.139223 -9.225133 22.821198 
7 7 1.263648 38.258911 9.122175 3.511466 -0.192837 -21.065893 
8 8 46.710335 38.460274 10.989480 -28.066746 9.541082 34.727211 
9 9 44.689484 36.906437 8.249796 -9.769979 49.432503 -17.713091 
10 10 43.836128 33.284328 8.085258 -4.953440 -1.370350 26.842707 
11 11 45.366917 30.950905 5.577261 24.884693 9.499009 -21.388733 
12 12 43.427738 29.884890 2.446677 -25.340443 31.045387 24.296976 
ITEM: TIMESTEP
17
ITEM: NUMBER OF ATOMS
12
ITEM: BOX BOUNDS pp pp pp
0.0000 48.6977
0.0000 48.6977
0.0000 48.6977
ITEM: ATOMS id type xu yu zu fx fy fz
1 1 8.147753 34.316341 14.228289 -4.625775 -24.578653 -1.993019 
2 2 8.988570 38.013824 13.869964 25.014036 -11.208603 18.561750 
3 3 7.683988 40.960304 11.807872 21.460886 5.937150 25.395626 
4 4 8.604010 40.093376 8.172092 11.777370 5.957967 4.268393 
5 5 7.272659 36.565239 8.308313 -16.772470 -0.708109 -16.432625 
6 6 4.377776 37.372166 10.634096 2.496166 23.709116 15.034142 
7 7 1.061597 37.349186 8.887025 -34.608517 9.545403 -16.701958 
8 8 46.578918 38.512947 10.602695 -2.389727 -12.732087 12.679005 
9 9 44.467087 37.460808 7.701225 5.079929 32.961861 -18.640282 
10 10 42.930161 34.034725 7.893114 -7.990541 -16.190134 3.913971 
11 11 44.655045 31.545792 5.658772 20.375429 3.167465 2.434316 
12 12 42.726639 30.008070 2.790366 -15.420522 -12.703035 -25.675909 
ITEM: TIMESTEP
18
ITEM: NUMBER OF ATOMS
12
ITEM: BOX BOUNDS pp pp pp
0.0000 48.6977
0.0000 48.6977
0.0000 48.6977
ITEM: ATOMS id type xu yu zu fx fy fz
1 1 7.775683 33.880325 15.092320 38.522251 -14.786950 -8.651808 
2 2 8.422166 37.479317 14.199390 -0.323673 -10.651117 11.183711 
3 3 6.879502 40.430069 12.534355 9.159363 14.844406 5.241877 
4 4 8.249729 39.761539 9.062179 -7.052176 28.004599 -19.419605 
5 5 7.006435 36.214218 8.994860 13.939457 -8.397882 7.497817 
6 6 3.754007 36.767933 10.946920 2.927498 0.817733 29.520491 
7 7 0.445801 37.821617 9.547432 0.743176 -7.960199 -6.653175 
8 8 45.783760 38.592281 11.166486 -24.812202 10.144159 9.562637 
9 9 44.126717 36.783607 8.257236 21.886473 -4.099422 20.384430 
10 10 43.512112 33.092106 8.113202 -20.559465 -15.920367 32.722988 
11 11 44.883381 30.367651 5.832995 9.904477 23.375757 21.588348 
12 12 42.673950 29.035128 3.001299 -18.801027 9.321047 17.435219 
ITEM: TIMESTEP
19
ITEM: NUMBER OF ATOMS
12
ITEM: BOX BOUNDS pp pp pp
0.0000 48.6977
0.0000 48.6977
0.0000 48.6977
ITEM: ATOMS id type xu yu zu fx fy fz
1 1 7.798034 33.748051 14.852165 3.646410 -41.885311 -27.421310 
2 2 9.007538 37.254597 14.080285 6.076447 -1.926460 5.272497 
3 3 6.967424 40.111061 12.704821 -5.797024 32.737236 34.741001 
4 4 7.795698 40.087692 9.028798 1.974614 6.823647 -30.011610 
5 5 6.856580 36.447281 8.814845 -5.277436 -30.734753 3.540459 
6 6 3.697754 36.995804 10.921198 12.337177 -17.014185 32.283970 
7 7 0.201646 37.755005 9.660110 7.881840 -22.820786 6.226306 
8 8 45.566097 38.183800 11.423997 -17.788048 18.144243 8.200673 
9 9 43.754852 36.013092 8.896601 -3.873775 42.778091 -32.198479 
10 10 43.594276 32.224487 8.817729 1.137718 -2.747427 13.650841 
11 11 45.194313 29.692799 6.641508 37.803333 -23.743683 -5.864927 
12 12 43.248997 28.889782 3.467522 -22.962196 -2.904988 -21.115700 
