ITEM: TIMESTEP
0
ITEM: NUMBER OF ATOMS
2
ITEM: BOX BOUNDS pp pp pp
-5 5
-5 5
-5 5
ITEM: ATOMS id mol type x y z fx fy fz 
1 1 1 0.365196 -0.925869 1.52148 1.8874 -11.1871 3.91027 
2 1 1 0.524365 -1.8693 1.85125 -1.8874 11.1871 -3.91027 
ITEM: TIMESTEP
100
ITEM: NUMBER OF ATOMS
2
ITEM: BOX BOUNDS pp pp pp
-5 5
-5 5
-5 5
ITEM: ATOMS id mol type x y z fx fy fz 
1 1 1 0.74988 -1.01147 1.82229 -12.5904 -15.9337 -5.60904 
2 1 1 0.139681 -1.7837 1.55044 12.5904 15.9337 5.60904 
ITEM: TIMESTEP
200
ITEM: NUMBER OF ATOMS
2
ITEM: BOX BOUNDS pp pp pp
-5 5
-5 5
-5 5
ITEM: ATOMS id mol type x y z fx fy fz 
1 1 1 0.83574 -1.46745 1.9882 1.82847 -0.326735 1.41165 
2 1 1 0.053821 -1.32772 1.38453 -1.82847 0.326735 -1.41165 
ITEM: TIMESTEP
300
ITEM: NUMBER OF ATOMS
2
ITEM: BOX BOUNDS pp pp pp
-5 5
-5 5
-5 5
ITEM: ATOMS id mol type x y z fx fy fz 
1 1 1 0.55314 -1.84081 1.86586 4.28289 -17.5183 7.09439 
2 1 1 0.336421 -0.954364 1.50688 -4.28289 17.5183 -7.09439 
ITEM: TIMESTEP
400
ITEM: NUMBER OF ATOMS
2
ITEM: BOX BOUNDS pp pp pp
-5 5
-5 5
-5 5
ITEM: ATOMS id mol type x y z fx fy fz 
1 1 1 0.168623 -1.7981 1.57488 -0.988133 -1.43312 -0.398928 
2 1 1 0.720938 -0.997067 1.79786 0.988133 1.43312 0.398928 
ITEM: TIMESTEP
500
ITEM: NUMBER OF ATOMS
2
ITEM: BOX BOUNDS pp pp pp
-5 5
-5 5
-5 5
ITEM: ATOMS id mol type x y z fx fy fz 
1 1 1 0.0371227 -1.36457 1.38065 16.9685 -1.3741 12.7254 
2 1 1 0.852438 -1.4306 1.99209 -16.9685 1.3741 -12.7254 
ITEM: TIMESTEP
600
ITEM: NUMBER OF ATOMS
2
ITEM: BOX BOUNDS pp pp pp
-5 5
-5 5
-5 5
ITEM: ATOMS id mol type x y z fx fy fz 
1 1 1 0.30148 -0.957682 1.48206 3.2631 -10.017 4.65225 
2 1 1 0.588081 -1.83749 1.89067 -3.2631 10.017 -4.65225 
ITEM: TIMESTEP
700
ITEM: NUMBER OF ATOMS
2
ITEM: BOX BOUNDS pp pp pp
-5 5
-5 5
-5 5
ITEM: ATOMS id mol type x y z fx fy fz 
1 1 1 0.692401 -0.980738 1.77329 7.46254 12.5625 2.6195 
2 1 1 0.19716 -1.81443 1.59945 -7.46254 -12.5625 -2.6195 
ITEM: TIMESTEP
800
ITEM: NUMBER OF ATOMS
2
ITEM: BOX BOUNDS pp pp pp
-5 5
-5 5
-5 5
ITEM: ATOMS id mol type x y z fx fy fz 
1 1 1 0.843261 -1.39136 1.9765 11.3905 0.177896 8.29345 
2 1 1 0.0463 -1.40381 1.39623 -11.3905 -0.177896 -8.29345 
ITEM: TIMESTEP
900
ITEM: NUMBER OF ATOMS
2
ITEM: BOX BOUNDS pp pp pp
-5 5
-5 5
-5 5
ITEM: ATOMS id mol type x y z fx fy fz 
1 1 1 0.617304 -1.81888 1.90784 -4.26901 10.4246 -5.48035 
2 1 1 0.272257 -0.976295 1.46489 4.26901 -10.4246 5.48035 
ITEM: TIMESTEP
1000
ITEM: NUMBER OF ATOMS
2
ITEM: BOX BOUNDS pp pp pp
-5 5
-5 5
-5 5
ITEM: ATOMS id mol type x y z fx fy fz 
1 1 1 0.214691 -1.84834 1.61994 9.39668 18.4084 2.71284 
2 1 1 0.67487 -0.946833 1.75279 -9.39668 -18.4084 -2.71284 
ITEM: TIMESTEP
1100
ITEM: NUMBER OF ATOMS
2
ITEM: BOX BOUNDS pp pp pp
-5 5
-5 5
-5 5
ITEM: ATOMS id mol type x y z fx fy fz 
1 1 1 0.0392435 -1.44393 1.40014 -2.38838 -0.272931 -1.68572 
2 1 1 0.850317 -1.35124 1.97259 2.38838 0.272931 1.68572 
ITEM: TIMESTEP
1200
ITEM: NUMBER OF ATOMS
2
ITEM: BOX BOUNDS pp pp pp
-5 5
-5 5
-5 5
ITEM: ATOMS id mol type x y z fx fy fz 
1 1 1 0.249107 -1.01155 1.45592 -7.72695 15.244 -9.09998 
2 1 1 0.640454 -1.78362 1.91681 7.72695 -15.244 9.09998 
ITEM: TIMESTEP
1300
ITEM: NUMBER OF ATOMS
2
ITEM: BOX BOUNDS pp pp pp
-5 5
-5 5
-5 5
ITEM: ATOMS id mol type x y z fx fy fz 
1 1 1 0.643206 -0.941213 1.72836 0.467615 1.0755 0.0989544 
2 1 1 0.246355 -1.85396 1.64438 -0.467615 -1.0755 -0.0989544 
ITEM: TIMESTEP
1400
ITEM: NUMBER OF ATOMS
2
ITEM: BOX BOUNDS pp pp pp
-5 5
-5 5
-5 5
ITEM: ATOMS id mol type x y z fx fy fz 
1 1 1 0.86015 -1.31171 1.97085 -17.441 -3.60594 -11.9452 
2 1 1 0.0294108 -1.48346 1.40188 17.441 3.60594 11.9452 
ITEM: TIMESTEP
1500
ITEM: NUMBER OF ATOMS
2
ITEM: BOX BOUNDS pp pp pp
-5 5
-5 5
-5 5
ITEM: ATOMS id mol type x y z fx fy fz 
1 1 1 0.67474 -1.77025 1.93887 -4.99172 8.08933 -5.48111 
2 1 1 0.214821 -1.02492 1.43386 4.99172 -8.08933 5.48111 
ITEM: TIMESTEP
1600
ITEM: NUMBER OF ATOMS
2
ITEM: BOX BOUNDS pp pp pp
-5 5
-5 5
-5 5
ITEM: ATOMS id mol type x y z fx fy fz 
1 1 1 0.278351 -1.86068 1.66931 -5.14461 -14.3151 -0.527367 
2 1 1 0.61121 -0.93449 1.70343 5.14461 14.3151 0.527367 
ITEM: TIMESTEP
1700
ITEM: NUMBER OF ATOMS
2
ITEM: BOX BOUNDS pp pp pp
-5 5
-5 5
-5 5
ITEM: ATOMS id mol type x y z fx fy fz 
1 1 1 0.0462243 -1.51775 1.42194 -11.0516 -3.33205 -7.33237 
2 1 1 0.843337 -1.27742 1.9508 11.0516 3.33205 7.33237 
ITEM: TIMESTEP
1800
ITEM: NUMBER OF ATOMS
2
ITEM: BOX BOUNDS pp pp pp
-5 5
-5 5
-5 5
ITEM: ATOMS id mol type x y z fx fy fz 
1 1 1 0.188915 -1.05044 1.42068 6.58944 -8.9401 6.84242 
2 1 1 0.700646 -1.74473 1.95206 -6.58944 8.9401 -6.84242 
ITEM: TIMESTEP
1900
ITEM: NUMBER OF ATOMS
2
ITEM: BOX BOUNDS pp pp pp
-5 5
-5 5
-5 5
ITEM: ATOMS id mol type x y z fx fy fz 
1 1 1 0.586972 -0.90754 1.6796 -5.74161 -19.7877 0.273217 
2 1 1 0.302589 -1.88763 1.69313 5.74161 19.7877 -0.273217 
ITEM: TIMESTEP
2000
ITEM: NUMBER OF ATOMS
2
ITEM: BOX BOUNDS pp pp pp
-5 5
-5 5
-5 5
ITEM: ATOMS id mol type x y z fx fy fz 
1 1 1 0.842128 -1.23778 1.94095 2.81946 1.13394 1.80644 
2 1 1 0.0474326 -1.55739 1.43178 -2.81946 -1.13394 -1.80644 
ITEM: TIMESTEP
2100
ITEM: NUMBER OF ATOMS
2
ITEM: BOX BOUNDS pp pp pp
-5 5
-5 5
-5 5
ITEM: ATOMS id mol type x y z fx fy fz 
1 1 1 0.716796 -1.70477 1.95484 10.7216 -12.1078 10.5819 
2 1 1 0.172765 -1.0904 1.4179 -10.7216 12.1078 -10.5819 
ITEM: TIMESTEP
2200
ITEM: NUMBER OF ATOMS
2
ITEM: BOX BOUNDS pp pp pp
-5 5
-5 5
-5 5
ITEM: ATOMS id mol type x y z fx fy fz 
1 1 1 0.335327 -1.88425 1.71632 -0.123894 -0.550871 0.0339059 
2 1 1 0.554234 -0.910923 1.65641 0.123894 0.550871 -0.0339059 
ITEM: TIMESTEP
2300
ITEM: NUMBER OF ATOMS
2
ITEM: BOX BOUNDS pp pp pp
-5 5
-5 5
-5 5
ITEM: ATOMS id mol type x y z fx fy fz 
1 1 1 0.0450336 -1.59757 1.43911 16.9176 8.46351 10.4639 
2 1 1 0.844527 -1.1976 1.93362 -16.9176 -8.46351 -10.4639 
ITEM: TIMESTEP
2400
ITEM: NUMBER OF ATOMS
2
ITEM: BOX BOUNDS pp pp pp
-5 5
-5 5
-5 5
ITEM: ATOMS id mol type x y z fx fy fz 
1 1 1 0.141163 -1.11301 1.39989 6.2623 -5.86956 5.90883 
2 1 1 0.748398 -1.68216 1.97285 -6.2623 5.86956 -5.90883 
ITEM: TIMESTEP
2500
ITEM: NUMBER OF ATOMS
2
ITEM: BOX BOUNDS pp pp pp
-5 5
-5 5
-5 5
ITEM: ATOMS id mol type x y z fx fy fz 
1 1 1 0.520746 -0.914248 1.63266 2.40483 15.301 -1.70008 
2 1 1 0.368815 -1.88092 1.74007 -2.40483 -15.301 1.70008 
ITEM: TIMESTEP
2600
ITEM: NUMBER OF ATOMS
2
ITEM: BOX BOUNDS pp pp pp
-5 5
-5 5
-5 5
ITEM: ATOMS id mol type x y z fx fy fz 
1 1 1 0.82104 -1.17013 1.91022 10.1015 6.10658 6.0099 
2 1 1 0.0685206 -1.62504 1.46251 -10.1015 -6.10658 -6.0099 
ITEM: TIMESTEP
2700
ITEM: NUMBER OF ATOMS
2
ITEM: BOX BOUNDS pp pp pp
-5 5
-5 5
-5 5
ITEM: ATOMS id mol type x y z fx fy fz 
1 1 1 0.769696 -1.651 1.98138 -8.68891 6.77672 -7.88933 
2 1 1 0.119865 -1.14417 1.39135 8.68891 -6.77672 7.88933 
ITEM: TIMESTEP
2800
ITEM: NUMBER OF ATOMS
2
ITEM: BOX BOUNDS pp pp pp
-5 5
-5 5
-5 5
ITEM: ATOMS id mol type x y z fx fy fz 
1 1 1 0.398429 -1.89938 1.76591 1.84883 20.0155 -3.17281 
2 1 1 0.491132 -0.895786 1.60682 -1.84883 -20.0155 3.17281 
ITEM: TIMESTEP
2900
ITEM: NUMBER OF ATOMS
2
ITEM: BOX BOUNDS pp pp pp
-5 5
-5 5
-5 5
ITEM: ATOMS id mol type x y z fx fy fz 
1 1 1 0.077901 -1.66175 1.47767 -3.04312 -2.19118 -1.73103 
2 1 1 0.81166 -1.13342 1.89506 3.04312 2.19118 1.73103 
ITEM: TIMESTEP
3000
ITEM: NUMBER OF ATOMS
2
ITEM: BOX BOUNDS pp pp pp
-5 5
-5 5
-5 5
ITEM: ATOMS id mol type x y z fx fy fz 
1 1 1 0.111677 -1.18649 1.39493 -13.0924 8.29696 -11.4548 
2 1 1 0.777884 -1.60868 1.97781 13.0924 -8.29696 11.4548 
ITEM: TIMESTEP
3100
ITEM: NUMBER OF ATOMS
2
ITEM: BOX BOUNDS pp pp pp
-5 5
-5 5
-5 5
ITEM: ATOMS id mol type x y z fx fy fz 
1 1 1 0.459004 -0.907932 1.58606 -0.00134889 -0.0464363 0.0095123 
2 1 1 0.430557 -1.88724 1.78667 0.00134889 0.0464363 -0.0095123 
ITEM: TIMESTEP
3200
ITEM: NUMBER OF ATOMS
2
ITEM: BOX BOUNDS pp pp pp
-5 5
-5 5
-5 5
ITEM: ATOMS id mol type x y z fx fy fz 
1 1 1 0.80644 -1.09469 1.88249 -15.4134 -12.9089 -8.35834 
2 1 1 0.0831208 -1.70048 1.49025 15.4134 12.9089 8.35834 
ITEM: TIMESTEP
3300
ITEM: NUMBER OF ATOMS
2
ITEM: BOX BOUNDS pp pp pp
-5 5
-5 5
-5 5
ITEM: ATOMS id mol type x y z fx fy fz 
1 1 1 0.804934 -1.5782 1.9907 -7.03306 3.52707 -5.94311 
2 1 1 0.0846273 -1.21697 1.38203 7.03306 -3.52707 5.94311 
ITEM: TIMESTEP
3400
ITEM: NUMBER OF ATOMS
2
ITEM: BOX BOUNDS pp pp pp
-5 5
-5 5
-5 5
ITEM: ATOMS id mol type x y z fx fy fz 
1 1 1 0.463475 -1.87404 1.80777 0.605173 -15.424 3.93011 
2 1 1 0.426086 -0.921129 1.56496 -0.605173 15.424 -3.93011 
ITEM: TIMESTEP
3500
ITEM: NUMBER OF ATOMS
2
ITEM: BOX BOUNDS pp pp pp
-5 5
-5 5
-5 5
ITEM: ATOMS id mol type x y z fx fy fz 
1 1 1 0.111958 -1.71967 1.51568 -8.63326 -8.35458 -4.42744 
2 1 1 0.777603 -1.07551 1.85705 8.63326 8.35458 4.42744 
ITEM: TIMESTEP
3600
ITEM: NUMBER OF ATOMS
2
ITEM: BOX BOUNDS pp pp pp
-5 5
-5 5
-5 5
ITEM: ATOMS id mol type x y z fx fy fz 
1 1 1 0.0690023 -1.25224 1.37857 10.4125 -4.0275 8.52878 
2 1 1 0.820559 -1.54293 1.99416 -10.4125 4.0275 -8.52878 
ITEM: TIMESTEP
3700
ITEM: NUMBER OF ATOMS
2
ITEM: BOX BOUNDS pp pp pp
-5 5
-5 5
-5 5
ITEM: ATOMS id mol type x y z fx fy fz 
1 1 1 0.392738 -0.912219 1.53855 2.04858 -19.1059 5.81863 
2 1 1 0.496823 -1.88295 1.83418 -2.04858 19.1059 -5.81863 
ITEM: TIMESTEP
3800
ITEM: NUMBER OF ATOMS
2
ITEM: BOX BOUNDS pp pp pp
-5 5
-5 5
-5 5
ITEM: ATOMS id mol type x y z fx fy fz 
1 1 1 0.760648 -1.044 1.83752 2.99603 3.35382 1.43371 
2 1 1 0.128913 -1.75117 1.53521 -2.99603 -3.35382 -1.43371 
ITEM: TIMESTEP
3900
ITEM: NUMBER OF ATOMS
2
ITEM: BOX BOUNDS pp pp pp
-5 5
-5 5
-5 5
ITEM: ATOMS id mol type x y z fx fy fz 
1 1 1 0.820294 -1.50074 1.98443 14.7035 -4.03899 11.6708 
2 1 1 0.0692673 -1.29443 1.3883 -14.7035 4.03899 -11.6708 
ITEM: TIMESTEP
4000
ITEM: NUMBER OF ATOMS
2
ITEM: BOX BOUNDS pp pp pp
-5 5
-5 5
-5 5
ITEM: ATOMS id mol type x y z fx fy fz 
1 1 1 0.526703 -1.86273 1.85147 -0.108352 0.615208 -0.218372 
2 1 1 0.362858 -0.932441 1.52126 0.108352 -0.615208 0.218372 
ITEM: TIMESTEP
4100
ITEM: NUMBER OF ATOMS
2
ITEM: BOX BOUNDS pp pp pp
-5 5
-5 5
-5 5
ITEM: ATOMS id mol type x y z fx fy fz 
1 1 1 0.141538 -1.7864 1.55241 13.0039 16.6734 5.74426 
2 1 1 0.748023 -1.00877 1.82032 -13.0039 -16.6734 -5.74426 
ITEM: TIMESTEP
4200
ITEM: NUMBER OF ATOMS
2
ITEM: BOX BOUNDS pp pp pp
-5 5
-5 5
-5 5
ITEM: ATOMS id mol type x y z fx fy fz 
1 1 1 0.0483672 -1.33095 1.38127 7.29988 -1.2271 5.6183 
2 1 1 0.841194 -1.46422 1.99146 -7.29988 1.2271 -5.6183 
ITEM: TIMESTEP
4300
ITEM: NUMBER OF ATOMS
2
ITEM: BOX BOUNDS pp pp pp
-5 5
-5 5
-5 5
ITEM: ATOMS id mol type x y z fx fy fz 
1 1 1 0.332541 -0.954727 1.50412 -3.71028 14.6395 -6.02454 
2 1 1 0.55702 -1.84044 1.86862 3.71028 -14.6395 6.02454 
ITEM: TIMESTEP
4400
ITEM: NUMBER OF ATOMS
2
ITEM: BOX BOUNDS pp pp pp
-5 5
-5 5
-5 5
ITEM: ATOMS id mol type x y z fx fy fz 
1 1 1 0.715443 -0.998879 1.79425 6.76855 9.97059 2.69778 
2 1 1 0.174118 -1.79629 1.57849 -6.76855 -9.97059 -2.69778 
ITEM: TIMESTEP
4500
ITEM: NUMBER OF ATOMS
2
ITEM: BOX BOUNDS pp pp pp
-5 5
-5 5
-5 5
ITEM: ATOMS id mol type x y z fx fy fz 
1 1 1 0.850356 -1.4266 1.98966 -11.6215 0.831379 -8.69065 
2 1 1 0.039205 -1.36857 1.38307 11.6215 -0.831379 8.69065 
ITEM: TIMESTEP
4600
ITEM: NUMBER OF ATOMS
2
ITEM: BOX BOUNDS pp pp pp
-5 5
-5 5
-5 5
ITEM: ATOMS id mol type x y z fx fy fz 
1 1 1 0.592239 -1.83927 1.89412 -5.7227 17.1413 -8.06257 
2 1 1 0.297322 -0.955899 1.47862 5.7227 -17.1413 8.06257 
ITEM: TIMESTEP
4700
ITEM: NUMBER OF ATOMS
2
ITEM: BOX BOUNDS pp pp pp
-5 5
-5 5
-5 5
ITEM: ATOMS id mol type x y z fx fy fz 
1 1 1 0.197582 -1.82065 1.60116 -2.63663 -4.51248 -0.90879 
2 1 1 0.691979 -0.974516 1.77157 2.63663 4.51248 0.90879 
ITEM: TIMESTEP
4800
ITEM: NUMBER OF ATOMS
2
ITEM: BOX BOUNDS pp pp pp
-5 5
-5 5
-5 5
ITEM: ATOMS id mol type x y z fx fy fz 
1 1 1 0.0479179 -1.40818 1.3984 -15.4656 -0.41293 -11.2219 
2 1 1 0.841643 -1.38699 1.97433 15.4656 0.41293 11.2219 
ITEM: TIMESTEP
4900
ITEM: NUMBER OF ATOMS
2
ITEM: BOX BOUNDS pp pp pp
-5 5
-5 5
-5 5
ITEM: ATOMS id mol type x y z fx fy fz 
1 1 1 0.271195 -0.983108 1.46565 0.442702 -1.05706 0.562896 
2 1 1 0.618366 -1.81206 1.90708 -0.442702 1.05706 -0.562896 
ITEM: TIMESTEP
5000
ITEM: NUMBER OF ATOMS
2
ITEM: BOX BOUNDS pp pp pp
-5 5
-5 5
-5 5
ITEM: ATOMS id mol type x y z fx fy fz 
1 1 1 0.672554 -0.944674 1.75061 -9.81995 -19.5263 -2.76976 
2 1 1 0.217007 -1.8505 1.62212 9.81995 19.5263 2.76976 
ITEM: TIMESTEP
5100
ITEM: NUMBER OF ATOMS
2
ITEM: BOX BOUNDS pp pp pp
-5 5
-5 5
-5 5
ITEM: ATOMS id mol type x y z fx fy fz 
1 1 1 0.855166 -1.34663 1.9751 -7.09437 -0.880829 -4.99134 
2 1 1 0.0343954 -1.44854 1.39763 7.09437 0.880829 4.99134 
ITEM: TIMESTEP
5200
ITEM: NUMBER OF ATOMS
2
ITEM: BOX BOUNDS pp pp pp
-5 5
-5 5
-5 5
ITEM: ATOMS id mol type x y z fx fy fz 
1 1 1 0.644209 -1.78203 1.9192 6.72269 -12.9596 7.84871 
2 1 1 0.245352 -1.01314 1.45353 -6.72269 12.9596 -7.84871 
ITEM: TIMESTEP
5300
ITEM: NUMBER OF ATOMS
2
ITEM: BOX BOUNDS pp pp pp
-5 5
-5 5
-5 5
ITEM: ATOMS id mol type x y z fx fy fz 
1 1 1 0.25153 -1.85061 1.64741 -4.64793 -10.8958 -0.937059 
2 1 1 0.638031 -0.944562 1.72533 4.64793 10.8958 0.937059 
ITEM: TIMESTEP
5400
ITEM: NUMBER OF ATOMS
2
ITEM: BOX BOUNDS pp pp pp
-5 5
-5 5
-5 5
ITEM: ATOMS id mol type x y z fx fy fz 
1 1 1 0.0321682 -1.48665 1.40462 12.2036 2.63411 8.33301 
2 1 1 0.857393 -1.30852 1.96811 -12.2036 -2.63411 -8.33301 
ITEM: TIMESTEP
5500
ITEM: NUMBER OF ATOMS
2
ITEM: BOX BOUNDS pp pp pp
-5 5
-5 5
-5 5
ITEM: ATOMS id mol type x y z fx fy fz 
1 1 1 0.210241 -1.02436 1.43038 8.96477 -14.2659 9.78446 
2 1 1 0.67932 -1.77081 1.94235 -8.96477 14.2659 -9.78446 
ITEM: TIMESTEP
5600
ITEM: NUMBER OF ATOMS
2
ITEM: BOX BOUNDS pp pp pp
-5 5
-5 5
-5 5
ITEM: ATOMS id mol type x y z fx fy fz 
1 1 1 0.609525 -0.928848 1.70092 1.94999 5.54819 0.172243 
2 1 1 0.280036 -1.86632 1.67181 -1.94999 -5.54819 -0.172243 
ITEM: TIMESTEP
5700
ITEM: NUMBER OF ATOMS
2
ITEM: BOX BOUNDS pp pp pp
-5 5
-5 5
-5 5
ITEM: ATOMS id mol type x y z fx fy fz 
1 1 1 0.840732 -1.27381 1.94807 15.3418 4.79577 10.1403 
2 1 1 0.0488294 -1.52136 1.42466 -15.3418 -4.79577 -10.1403 
ITEM: TIMESTEP
5800
ITEM: NUMBER OF ATOMS
2
ITEM: BOX BOUNDS pp pp pp
-5 5
-5 5
-5 5
ITEM: ATOMS id mol type x y z fx fy fz 
1 1 1 0.700392 -1.73805 1.95036 -0.965425 1.28592 -0.997084 
2 1 1 0.189169 -1.05712 1.42237 0.965425 -1.28592 0.997084 
ITEM: TIMESTEP
5900
ITEM: NUMBER OF ATOMS
2
ITEM: BOX BOUNDS pp pp pp
-5 5
-5 5
-5 5
ITEM: ATOMS id mol type x y z fx fy fz 
1 1 1 0.30529 -1.88916 1.69546 6.04118 21.2896 -0.393615 
2 1 1 0.584271 -0.906007 1.67728 -6.04118 -21.2896 0.393615 
ITEM: TIMESTEP
6000
ITEM: NUMBER OF ATOMS
2
ITEM: BOX BOUNDS pp pp pp
-5 5
-5 5
-5 5
ITEM: ATOMS id mol type x y z fx fy fz 
1 1 1 0.0434702 -1.56313 1.43018 6.47946 2.6729 4.13627 
2 1 1 0.846091 -1.23204 1.94255 -6.47946 -2.6729 -4.13627 
ITEM: TIMESTEP
6100
ITEM: NUMBER OF ATOMS
2
ITEM: BOX BOUNDS pp pp pp
-5 5
-5 5
-5 5
ITEM: ATOMS id mol type x y z fx fy fz 
1 1 1 0.169403 -1.09308 1.41604 -9.45392 10.454 -9.28047 
2 1 1 0.720158 -1.70209 1.95669 9.45392 -10.454 9.28047 
ITEM: TIMESTEP
6200
ITEM: NUMBER OF ATOMS
2
ITEM: BOX BOUNDS pp pp pp
-5 5
-5 5
-5 5
ITEM: ATOMS id mol type x y z fx fy fz 
1 1 1 0.549695 -0.915625 1.65415 2.42064 11.12 -0.743202 
2 1 1 0.339866 -1.87955 1.71858 -2.42064 -11.12 0.743202 
ITEM: TIMESTEP
6300
ITEM: NUMBER OF ATOMS
2
ITEM: BOX BOUNDS pp pp pp
-5 5
-5 5
-5 5
ITEM: ATOMS id mol type x y z fx fy fz 
1 1 1 0.841252 -1.19534 1.93071 -12.0824 -6.16332 -7.44643 
2 1 1 0.0483092 -1.59983 1.44202 12.0824 6.16332 7.44643 
ITEM: TIMESTEP
6400
ITEM: NUMBER OF ATOMS
2
ITEM: BOX BOUNDS pp pp pp
-5 5
-5 5
-5 5
ITEM: ATOMS id mol type x y z fx fy fz 
1 1 1 0.753176 -1.68144 1.97618 -11.5977 10.6749 -10.8989 
2 1 1 0.136385 -1.11373 1.39655 11.5977 -10.6749 10.8989 
ITEM: TIMESTEP
6500
ITEM: NUMBER OF ATOMS
2
ITEM: BOX BOUNDS pp pp pp
-5 5
-5 5
-5 5
ITEM: ATOMS id mol type x y z fx fy fz 
1 1 1 0.371636 -1.88565 1.7432 -0.950536 -6.34246 0.738577 
2 1 1 0.517925 -0.909526 1.62953 0.950536 6.34246 -0.738577 
ITEM: TIMESTEP
6600
ITEM: NUMBER OF ATOMS
2
ITEM: BOX BOUNDS pp pp pp
-5 5
-5 5
-5 5
ITEM: ATOMS id mol type x y z fx fy fz 
1 1 1 0.0719555 -1.62762 1.4656 -14.3487 -8.85313 -8.49637 
2 1 1 0.817605 -1.16755 1.90713 14.3487 8.85313 8.49637 
ITEM: TIMESTEP
6700
ITEM: NUMBER OF ATOMS
2
ITEM: BOX BOUNDS pp pp pp
-5 5
-5 5
-5 5
ITEM: ATOMS id mol type x y z fx fy fz 
1 1 1 0.121401 -1.15035 1.39387 1.61733 -1.23652 1.46287 
2 1 1 0.76816 -1.64482 1.97886 -1.61733 1.23652 -1.46287 
ITEM: TIMESTEP
6800
ITEM: NUMBER OF ATOMS
2
ITEM: BOX BOUNDS pp pp pp
-5 5
-5 5
-5 5
ITEM: ATOMS id mol type x y z fx fy fz 
1 1 1 0.488136 -0.894951 1.60444 -1.88469 -21.8497 3.56128 
2 1 1 0.401425 -1.90022 1.76829 1.88469 21.8497 -3.56128 
ITEM: TIMESTEP
6900
ITEM: NUMBER OF ATOMS
2
ITEM: BOX BOUNDS pp pp pp
-5 5
-5 5
-5 5
ITEM: ATOMS id mol type x y z fx fy fz 
1 1 1 0.814506 -1.12687 1.89566 -5.54282 -4.05857 -3.13769 
2 1 1 0.0750553 -1.66831 1.47707 5.54282 4.05857 3.13769 
ITEM: TIMESTEP
7000
ITEM: NUMBER OF ATOMS
2
ITEM: BOX BOUNDS pp pp pp
-5 5
-5 5
-5 5
ITEM: ATOMS id mol type x y z fx fy fz 
1 1 1 0.780617 -1.60512 1.979 11.7271 -7.24709 10.2185 
2 1 1 0.108944 -1.19005 1.39373 -11.7271 7.24709 -10.2185 
ITEM: TIMESTEP
7100
ITEM: NUMBER OF ATOMS
2
ITEM: BOX BOUNDS pp pp pp
-5 5
-5 5
-5 5
ITEM: ATOMS id mol type x y z fx fy fz 
1 1 1 0.434179 -1.88145 1.78801 -0.233996 -10.6798 2.24349 
2 1 1 0.455382 -0.913718 1.58472 0.233996 10.6798 -2.24349 
ITEM: TIMESTEP
7200
ITEM: NUMBER OF ATOMS
2
ITEM: BOX BOUNDS pp pp pp
-5 5
-5 5
-5 5
ITEM: ATOMS id mol type x y z fx fy fz 
1 1 1 0.0867423 -1.70175 1.49318 11.2242 9.53521 6.05612 
2 1 1 0.802819 -1.09342 1.87955 -11.2242 -9.53521 -6.05612 
ITEM: TIMESTEP
7300
ITEM: NUMBER OF ATOMS
2
ITEM: BOX BOUNDS pp pp pp
-5 5
-5 5
-5 5
ITEM: ATOMS id mol type x y z fx fy fz 
1 1 1 0.0798932 -1.21898 1.37902 13.4864 -6.60115 11.3596 
2 1 1 0.809668 -1.57619 1.99371 -13.4864 6.60115 -11.3596 
ITEM: TIMESTEP
7400
ITEM: NUMBER OF ATOMS
2
ITEM: BOX BOUNDS pp pp pp
-5 5
-5 5
-5 5
ITEM: ATOMS id mol type x y z fx fy fz 
1 1 1 0.422329 -0.917601 1.56142 -0.317501 6.78764 -1.76697 
2 1 1 0.467232 -1.87757 1.81132 0.317501 -6.78764 1.76697 
ITEM: TIMESTEP
7500
ITEM: NUMBER OF ATOMS
2
ITEM: BOX BOUNDS pp pp pp
-5 5
-5 5
-5 5
ITEM: ATOMS id mol type x y z fx fy fz 
1 1 1 0.773555 -1.07417 1.85379 12.5558 12.3511 6.39373 
2 1 1 0.116006 -1.721 1.51895 -12.5558 -12.3511 -6.39373 
ITEM: TIMESTEP
7600
ITEM: NUMBER OF ATOMS
2
ITEM: BOX BOUNDS pp pp pp
-5 5
-5 5
-5 5
ITEM: ATOMS id mol type x y z fx fy fz 
1 1 1 0.817846 -1.53759 1.99097 -2.32139 0.871187 -1.89539 
2 1 1 0.071715 -1.25758 1.38176 2.32139 -0.871187 1.89539 
ITEM: TIMESTEP
7700
ITEM: NUMBER OF ATOMS
2
ITEM: BOX BOUNDS pp pp pp
-5 5
-5 5
-5 5
ITEM: ATOMS id mol type x y z fx fy fz 
1 1 1 0.50001 -1.88304 1.83653 -2.40787 21.1646 -6.54697 
2 1 1 0.389551 -0.912132 1.5362 2.40787 -21.1646 6.54697 
ITEM: TIMESTEP
7800
ITEM: NUMBER OF ATOMS
2
ITEM: BOX BOUNDS pp pp pp
-5 5
-5 5
-5 5
ITEM: ATOMS id mol type x y z fx fy fz 
1 1 1 0.127351 -1.75816 1.53565 4.38878 4.98534 2.08381 
2 1 1 0.76221 -1.03701 1.83708 -4.38878 -4.98534 -2.08381 
ITEM: TIMESTEP
7900
ITEM: NUMBER OF ATOMS
2
ITEM: BOX BOUNDS pp pp pp
-5 5
-5 5
-5 5
ITEM: ATOMS id mol type x y z fx fy fz 
1 1 1 0.0673547 -1.2986 1.38785 -13.3889 3.51143 -10.5897 
2 1 1 0.822206 -1.49657 1.98489 13.3889 -3.51143 10.5897 
ITEM: TIMESTEP
8000
ITEM: NUMBER OF ATOMS
2
ITEM: BOX BOUNDS pp pp pp
-5 5
-5 5
-5 5
ITEM: ATOMS id mol type x y z fx fy fz 
1 1 1 0.360379 -0.938974 1.52092 -1.77664 9.65376 -3.48256 
2 1 1 0.529182 -1.8562 1.85181 1.77664 -9.65376 3.48256 
ITEM: TIMESTEP
8100
ITEM: NUMBER OF ATOMS
2
ITEM: BOX BOUNDS pp pp pp
-5 5
-5 5
-5 5
ITEM: ATOMS id mol type x y z fx fy fz 
1 1 1 0.744234 -1.00851 1.81749 -9.64189 -12.5277 -4.22185 
2 1 1 0.145327 -1.78667 1.55525 9.64189 12.5277 4.22185 
ITEM: TIMESTEP
8200
ITEM: NUMBER OF ATOMS
2
ITEM: BOX BOUNDS pp pp pp
-5 5
-5 5
-5 5
ITEM: ATOMS id mol type x y z fx fy fz 
1 1 1 0.845632 -1.46097 1.99398 -14.5448 2.30003 -11.1615 
2 1 1 0.0439286 -1.3342 1.37876 14.5448 -2.30003 11.1615 
ITEM: TIMESTEP
8300
ITEM: NUMBER OF ATOMS
2
ITEM: BOX BOUNDS pp pp pp
-5 5
-5 5
-5 5
ITEM: ATOMS id mol type x y z fx fy fz 
1 1 1 0.561461 -1.84258 1.87235 1.78216 -6.79677 2.84063 
2 1 1 0.3281 -0.952589 1.50039 -1.78216 6.79677 -2.84063 
ITEM: TIMESTEP
8400
ITEM: NUMBER OF ATOMS
2
ITEM: BOX BOUNDS pp pp pp
-5 5
-5 5
-5 5
ITEM: ATOMS id mol type x y z fx fy fz 
1 1 1 0.178516 -1.79627 1.5817 -10.0799 -15.0926 -3.96236 
2 1 1 0.711045 -0.998906 1.79103 10.0799 15.0926 3.96236 
ITEM: TIMESTEP
8500
ITEM: NUMBER OF ATOMS
2
ITEM: BOX BOUNDS pp pp pp
-5 5
-5 5
-5 5
ITEM: ATOMS id mol type x y z fx fy fz 
1 1 1 0.0429252 -1.37281 1.38675 2.98954 -0.184331 2.22893 
2 1 1 0.846636 -1.42236 1.98598 -2.98954 0.184331 -2.22893 
ITEM: TIMESTEP
8600
ITEM: NUMBER OF ATOMS
2
ITEM: BOX BOUNDS pp pp pp
-5 5
-5 5
-5 5
ITEM: ATOMS id mol type x y z fx fy fz 
1 1 1 0.294058 -0.956586 1.47638 6.58511 -19.2673 9.17422 
2 1 1 0.595503 -1.83858 1.89635 -6.58511 19.2673 -9.17422 
ITEM: TIMESTEP
8700
ITEM: NUMBER OF ATOMS
2
ITEM: BOX BOUNDS pp pp pp
-5 5
-5 5
-5 5
ITEM: ATOMS id mol type x y z fx fy fz 
1 1 1 0.692164 -0.967492 1.77012 -3.12928 -5.44047 -1.05941 
2 1 1 0.197397 -1.82768 1.60262 3.12928 5.44047 1.05941 
ITEM: TIMESTEP
8800
ITEM: NUMBER OF ATOMS
2
ITEM: BOX BOUNDS pp pp pp
-5 5
-5 5
-5 5
ITEM: ATOMS id mol type x y z fx fy fz 
1 1 1 0.842605 -1.38252 1.97402 14.3199 0.542181 10.3544 
2 1 1 0.0469557 -1.41265 1.39871 -14.3199 -0.542181 -10.3544 
ITEM: TIMESTEP
8900
ITEM: NUMBER OF ATOMS
2
ITEM: BOX BOUNDS pp pp pp
-5 5
-5 5
-5 5
ITEM: ATOMS id mol type x y z fx fy fz 
1 1 1 0.619543 -1.80517 1.90638 3.49667 -8.15492 4.40211 
2 1 1 0.270018 -0.990004 1.46635 -3.49667 8.15492 -4.40211 
ITEM: TIMESTEP
9000
ITEM: NUMBER OF ATOMS
2
ITEM: BOX BOUNDS pp pp pp
-5 5
-5 5
-5 5
ITEM: ATOMS id mol type x y z fx fy fz 
1 1 1 0.220788 -1.84979 1.62473 7.39662 14.9327 2.03536 
2 1 1 0.668773 -0.945377 1.748 -7.39662 -14.9327 -2.03536 
ITEM: TIMESTEP
9100
ITEM: NUMBER OF ATOMS
2
ITEM: BOX BOUNDS pp pp pp
-5 5
-5 5
-5 5
ITEM: ATOMS id mol type x y z fx fy fz 
1 1 1 0.030497 -1.45289 1.39577 14.7403 1.96766 10.3396 
2 1 1 0.859064 -1.34228 1.97697 -14.7403 -1.96766 -10.3396 
ITEM: TIMESTEP
9200
ITEM: NUMBER OF ATOMS
2
ITEM: BOX BOUNDS pp pp pp
-5 5
-5 5
-5 5
ITEM: ATOMS id mol type x y z fx fy fz 
1 1 1 0.240521 -1.0125 1.44986 -3.34811 6.31214 -3.87676 
2 1 1 0.64904 -1.78267 1.92288 3.34811 -6.31214 3.87676 
ITEM: TIMESTEP
9300
ITEM: NUMBER OF ATOMS
2
ITEM: BOX BOUNDS pp pp pp
-5 5
-5 5
-5 5
ITEM: ATOMS id mol type x y z fx fy fz 
1 1 1 0.633574 -0.945983 1.72239 7.07734 16.9294 1.35033 
2 1 1 0.255987 -1.84919 1.65035 -7.07734 -16.9294 -1.35033 
ITEM: TIMESTEP
9400
ITEM: NUMBER OF ATOMS
2
ITEM: BOX BOUNDS pp pp pp
-5 5
-5 5
-5 5
ITEM: ATOMS id mol type x y z fx fy fz 
1 1 1 0.852886 -1.3056 1.96415 -3.53047 -0.795739 -2.4031 
2 1 1 0.0366751 -1.48957 1.40858 3.53047 0.795739 2.4031 
ITEM: TIMESTEP
9500
ITEM: NUMBER OF ATOMS
2
ITEM: BOX BOUNDS pp pp pp
-5 5
-5 5
-5 5
ITEM: ATOMS id mol type x y z fx fy fz 
1 1 1 0.682537 -1.76935 1.94437 -10.4014 16.2641 -11.2873 
2 1 1 0.207024 -1.02582 1.42836 10.4014 -16.2641 11.2873 
ITEM: TIMESTEP
9600
ITEM: NUMBER OF ATOMS
2
ITEM: BOX BOUNDS pp pp pp
-5 5
-5 5
-5 5
ITEM: ATOMS id mol type x y z fx fy fz 
1 1 1 0.281242 -1.87298 1.6742 1.87469 5.44956 0.139453 
2 1 1 0.608319 -0.922193 1.69853 -1.87469 -5.44956 -0.139453 
ITEM: TIMESTEP
9700
ITEM: NUMBER OF ATOMS
2
ITEM: BOX BOUNDS pp pp pp
-5 5
-5 5
-5 5
ITEM: ATOMS id mol type x y z fx fy fz 
1 1 1 0.0488793 -1.52579 1.4257 -14.4435 -4.6774 -9.50986 
2 1 1 0.840682 -1.26938 1.94703 14.4435 4.6774 9.50986 
ITEM: TIMESTEP
9800
ITEM: NUMBER OF ATOMS
2
ITEM: BOX BOUNDS pp pp pp
-5 5
-5 5
-5 5
ITEM: ATOMS id mol type x y z fx fy fz 
1 1 1 0.189374 -1.06397 1.42407 -4.83922 6.32102 -4.96972 
2 1 1 0.700187 -1.7312 1.94866 4.83922 -6.32102 4.96972 
ITEM: TIMESTEP
9900
ITEM: NUMBER OF ATOMS
2
ITEM: BOX BOUNDS pp pp pp
-5 5
-5 5
-5 5
ITEM: ATOMS id mol type x y z fx fy fz 
1 1 1 0.580663 -0.907605 1.675 -4.5954 -16.5706 0.384432 
2 1 1 0.308898 -1.88757 1.69773 4.5954 16.5706 -0.384432 
ITEM: TIMESTEP
10000
ITEM: NUMBER OF ATOMS
2
ITEM: BOX BOUNDS pp pp pp
-5 5
-5 5
-5 5
ITEM: ATOMS id mol type x y z fx fy fz 
1 1 1 0.849225 -1.22679 1.94365 -14.0937 -5.95191 -8.96578 
2 1 1 0.0403365 -1.56839 1.42908 14.0937 5.95191 8.96578 
ITEM: TIMESTEP
10100
ITEM: NUMBER OF ATOMS
2
ITEM: BOX BOUNDS pp pp pp
-5 5
-5 5
-5 5
ITEM: ATOMS id mol type x y z fx fy fz 
1 1 1 0.725065 -1.70123 1.96009 4.90311 -5.31178 4.78828 
2 1 1 0.164496 -1.09394 1.41265 -4.90311 5.31178 -4.78828 
ITEM: TIMESTEP
10200
ITEM: NUMBER OF ATOMS
2
ITEM: BOX BOUNDS pp pp pp
-5 5
-5 5
-5 5
ITEM: ATOMS id mol type x y z fx fy fz 
1 1 1 0.344081 -1.87679 1.72104 -3.73415 -17.7701 1.28575 
2 1 1 0.54548 -0.918379 1.65169 3.73415 17.7701 -1.28575 
ITEM: TIMESTEP
10300
ITEM: NUMBER OF ATOMS
2
ITEM: BOX BOUNDS pp pp pp
-5 5
-5 5
-5 5
ITEM: ATOMS id mol type x y z fx fy fz 
1 1 1 0.0533438 -1.60131 1.44604 3.85801 2.00787 2.36868 
2 1 1 0.836217 -1.19387 1.92669 -3.85801 -2.00787 -2.36868 
ITEM: TIMESTEP
10400
ITEM: NUMBER OF ATOMS
2
ITEM: BOX BOUNDS pp pp pp
-5 5
-5 5
-5 5
ITEM: ATOMS id mol type x y z fx fy fz 
1 1 1 0.133343 -1.11594 1.39483 13.632 -12.3281 12.7611 
2 1 1 0.756218 -1.67923 1.97791 -13.632 12.3281 -12.7611 
ITEM: TIMESTEP
10500
ITEM: NUMBER OF ATOMS
2
ITEM: BOX BOUNDS pp pp pp
-5 5
-5 5
-5 5
ITEM: ATOMS id mol type x y z fx fy fz 
1 1 1 0.515399 -0.903624 1.62635 -0.725133 -5.07215 0.616275 
2 1 1 0.374162 -1.89155 1.74638 0.725133 5.07215 -0.616275 
ITEM: TIMESTEP
10600
ITEM: NUMBER OF ATOMS
2
ITEM: BOX BOUNDS pp pp pp
-5 5
-5 5
-5 5
ITEM: ATOMS id mol type x y z fx fy fz 
1 1 1 0.816554 -1.16347 1.90544 13.7315 8.64692 8.09138 
2 1 1 0.0730069 -1.6317 1.4673 -13.7315 -8.64692 -8.09138 
ITEM: TIMESTEP
10700
ITEM: NUMBER OF ATOMS
2
ITEM: BOX BOUNDS pp pp pp
-5 5
-5 5
-5 5
ITEM: ATOMS id mol type x y z fx fy fz 
1 1 1 0.766577 -1.63842 1.97626 5.74986 -4.30327 5.17977 
2 1 1 0.122984 -1.15675 1.39648 -5.74986 4.30327 -5.17977 
ITEM: TIMESTEP
10800
ITEM: NUMBER OF ATOMS
2
ITEM: BOX BOUNDS pp pp pp
-5 5
-5 5
-5 5
ITEM: ATOMS id mol type x y z fx fy fz 
1 1 1 0.404713 -1.89784 1.77016 1.38589 17.3032 -2.89826 
2 1 1 0.484848 -0.897335 1.60258 -1.38589 -17.3032 2.89826 
ITEM: TIMESTEP
10900
ITEM: NUMBER OF ATOMS
2
ITEM: BOX BOUNDS pp pp pp
-5 5
-5 5
-5 5
ITEM: ATOMS id mol type x y z fx fy fz 
1 1 1 0.0728766 -1.67421 1.47681 12.6769 9.42901 7.14299 
2 1 1 0.816684 -1.12097 1.89592 -12.6769 -9.42901 -7.14299 
ITEM: TIMESTEP
11000
ITEM: NUMBER OF ATOMS
2
ITEM: BOX BOUNDS pp pp pp
-5 5
-5 5
-5 5
ITEM: ATOMS id mol type x y z fx fy fz 
1 1 1 0.104274 -1.19232 1.39083 -6.32608 3.81346 -5.49061 
2 1 1 0.785287 -1.60285 1.9819 6.32608 -3.81346 5.49061 
ITEM: TIMESTEP
11100
ITEM: NUMBER OF ATOMS
2
ITEM: BOX BOUNDS pp pp pp
-5 5
-5 5
-5 5
ITEM: ATOMS id mol type x y z fx fy fz 
1 1 1 0.451698 -0.917653 1.58292 0.253482 17.5857 -3.79065 
2 1 1 0.437863 -1.87752 1.78982 -0.253482 -17.5857 3.79065 
ITEM: TIMESTEP
11200
ITEM: NUMBER OF ATOMS
2
ITEM: BOX BOUNDS pp pp pp
-5 5
-5 5
-5 5
ITEM: ATOMS id mol type x y z fx fy fz 
1 1 1 0.797538 -1.09344 1.87569 -3.8993 -3.36198 -2.09273 
2 1 1 0.0920232 -1.70173 1.49704 3.8993 3.36198 2.09273 
ITEM: TIMESTEP
11300
ITEM: NUMBER OF ATOMS
2
ITEM: BOX BOUNDS pp pp pp
-5 5
-5 5
-5 5
ITEM: ATOMS id mol type x y z fx fy fz 
1 1 1 0.812404 -1.57329 1.99506 -16.0872 7.6888 -13.5084 
2 1 1 0.0771574 -1.22188 1.37767 16.0872 -7.6888 13.5084 
ITEM: TIMESTEP
11400
ITEM: NUMBER OF ATOMS
2
ITEM: BOX BOUNDS pp pp pp
-5 5
-5 5
-5 5
ITEM: ATOMS id mol type x y z fx fy fz 
1 1 1 0.470932 -1.88238 1.81511 -0.237082 4.39492 -1.16714 
2 1 1 0.418629 -0.912794 1.55762 0.237082 -4.39492 1.16714 
ITEM: TIMESTEP
11500
ITEM: NUMBER OF ATOMS
2
ITEM: BOX BOUNDS pp pp pp
-5 5
-5 5
-5 5
ITEM: ATOMS id mol type x y z fx fy fz 
1 1 1 0.117976 -1.72442 1.52116 -12.2069 -12.2081 -6.17074 
2 1 1 0.771585 -1.07075 1.85157 12.2069 12.2081 6.17074 
ITEM: TIMESTEP
11600
ITEM: NUMBER OF ATOMS
2
ITEM: BOX BOUNDS pp pp pp
-5 5
-5 5
-5 5
ITEM: ATOMS id mol type x y z fx fy fz 
1 1 1 0.0745906 -1.26315 1.38513 -6.20873 2.25472 -5.05232 
2 1 1 0.81497 -1.53202 1.98761 6.20873 -2.25472 5.05232 
ITEM: TIMESTEP
11700
ITEM: NUMBER OF ATOMS
2
ITEM: BOX BOUNDS pp pp pp
-5 5
-5 5
-5 5
ITEM: ATOMS id mol type x y z fx fy fz 
1 1 1 0.386707 -0.915166 1.5348 2.05183 -17.0446 5.35497 
2 1 1 0.502854 -1.88001 1.83793 -2.05183 17.0446 -5.35497 
ITEM: TIMESTEP
11800
ITEM: NUMBER OF ATOMS
2
ITEM: BOX BOUNDS pp pp pp
-5 5
-5 5
-5 5
ITEM: ATOMS id mol type x y z fx fy fz 
1 1 1 0.763289 -1.03076 1.83646 -10.6059 -12.2148 -4.99791 
2 1 1 0.126272 -1.76441 1.53627 10.6059 12.2148 4.99791 
ITEM: TIMESTEP
11900
ITEM: NUMBER OF ATOMS
2
ITEM: BOX BOUNDS pp pp pp
-5 5
-5 5
-5 5
ITEM: ATOMS id mol type x y z fx fy fz 
1 1 1 0.826346 -1.49306 1.98712 7.49615 -1.87561 5.90853 
2 1 1 0.0632147 -1.30211 1.38561 -7.49615 1.87561 -5.90853 
ITEM: TIMESTEP
12000
ITEM: NUMBER OF ATOMS
2
ITEM: BOX BOUNDS pp pp pp
-5 5
-5 5
-5 5
ITEM: ATOMS id mol type x y z fx fy fz 
1 1 1 0.532074 -1.85131 1.85282 3.15714 -16.4099 6.02015 
2 1 1 0.357487 -0.943856 1.51991 -3.15714 16.4099 -6.02015 
ITEM: TIMESTEP
12100
ITEM: NUMBER OF ATOMS
2
ITEM: BOX BOUNDS pp pp pp
-5 5
-5 5
-5 5
ITEM: ATOMS id mol type x y z fx fy fz 
1 1 1 0.150567 -1.78519 1.55875 3.60209 4.74555 1.56246 
2 1 1 0.738994 -1.00998 1.81399 -3.60209 -4.74555 -1.56246 
ITEM: TIMESTEP
12200
ITEM: NUMBER OF ATOMS
2
ITEM: BOX BOUNDS pp pp pp
-5 5
-5 5
-5 5
ITEM: ATOMS id mol type x y z fx fy fz 
1 1 1 0.0416247 -1.33769 1.37786 17.6235 -2.6182 13.486 
2 1 1 0.847936 -1.45748 1.99487 -17.6235 2.6182 -13.486 
ITEM: TIMESTEP
12300
ITEM: NUMBER OF ATOMS
2
ITEM: BOX BOUNDS pp pp pp
-5 5
-5 5
-5 5
ITEM: ATOMS id mol type x y z fx fy fz 