#LAMMPS data file for liquid methanol

1000 atoms
0 bonds
0 angles
0 dihedrals
0 impropers

1	atom types

-20.6917	20.6917	xlo xhi
-20.6917	20.6917	ylo yhi
-20.6917	20.6917	zlo zhi

Masses

1	32.041

Atoms

1 1 1 0.000 -18.102296 -15.040076 -18.650576
2 2 1 0.000 -13.577866 -12.164464 -15.860117
3 3 1 0.000 -14.681947 -14.869823 -17.238597
4 4 1 0.000 -12.145525 -19.784123 -12.784067
5 5 1 0.000 -15.620977 -15.590970 -20.419060
6 6 1 0.000 -18.106263 -18.210848 -12.991330
7 7 1 0.000 -10.037352 -11.908010 -19.9208151 
8 8 1 0.000 -16.957752 -18.936814 -17.554450
9 9 1 0.000 -13.604134 -19.326629 -16.721121
10 10 1 0.000 -14.355700 -17.074273 -13.141999
11 11 1 0.000 -17.634430 -20.408710 -20.296090
12 12 1 0.000 -19.392207 -10.853585 -13.930629
13 13 1 0.000 -10.733056 -14.653356 -16.852845
14 14 1 0.000 -15.777684 -10.178808 -17.864420
15 15 1 0.000 -19.606246 -12.160583 -18.080318
16 16 1 0.000 -11.306123 -16.054927 -13.775419
17 17 1 0.000 -12.942984 -19.243156 -20.265469
18 18 1 0.000 -9.589112 -11.085078 -12.618249
19 19 1 0.000 -14.785338 20.658327 -10.878377
20 20 1 0.000 -20.343246 -14.042702 -13.913640
21 21 1 0.000 -20.687920 -17.131164 -16.085469
22 22 1 0.000 20.566658 -10.262014 20.370527
23 23 1 0.000 -16.608050 -12.988702 -10.206574
24 24 1 0.000 -11.399108 -15.128007 -9.026012
25 25 1 0.000 -20.387318 -19.953778 -10.842863
26 26 1 0.000 -1.554450 20.682579 -11.223373
27 27 1 0.000 -4.939006 -13.428502 -19.876532
28 28 1 0.000 -5.238354 -16.840184 -19.231616
29 29 1 0.000 -9.226968 -19.320046 -17.030498
30 30 1 0.000 -0.498220 -18.929852 20.569242
31 31 1 0.000 -0.156442 -19.529735 -16.434574
32 32 1 0.000 -4.760639 -19.431197 -16.205903
33 33 1 0.000 -8.134560 -11.216128 -17.000333
34 34 1 0.000 -9.410403 -17.410630 -20.683179
35 35 1 0.000 -7.722365 -18.452847 -14.075692
36 36 1 0.000 -7.589620 -15.504035 -16.232862
37 37 1 0.000 -3.011866 -15.391360 -17.113453
38 38 1 0.000 -1.241229 -10.522100 -14.655951
39 39 1 0.000 -3.839281 -15.953095 -13.331444
40 40 1 0.000 -3.975442 -12.873615 -14.092663
41 41 1 0.000 -2.948735 -11.017015 -18.746882
42 42 1 0.000 0.436808 -13.996753 -13.209172
43 43 1 0.000 -2.365303 -11.792477 -9.848147
44 44 1 0.000 -12.576334 -1.383557 -17.975992
45 45 1 0.000 -15.566720 0.331828 -20.036506
46 46 1 0.000 -19.834694 -2.832336 -15.654319
47 47 1 0.000 -20.209223 -1.769970 -11.272373
48 48 1 0.000 -17.200139 -1.296037 -15.955847
49 49 1 0.000 -14.272616 -1.301987 -14.837025
50 50 1 0.000 -18.542609 -5.415539 -20.248070
51 51 1 0.000 -13.399267 -8.234474 -11.172627
52 52 1 0.000 -12.440435 -5.299814 -12.327761
53 53 1 0.000 -14.512336 -4.511779 -17.103418
54 54 1 0.000 19.578223 -7.210226 -17.057105
55 55 1 0.000 -10.203212 -0.587632 -11.549581
56 56 1 0.000 -15.938471 -5.137172 -12.590920
57 57 1 0.000 -11.877216 -3.649548 19.983322
58 58 1 0.000 -14.559358 -7.567089 -19.828559
59 59 1 0.000 -15.458155 -9.073030 -13.916602
60 60 1 0.000 -19.529100 -7.087240 -12.339737
61 61 1 0.000 -12.028397 -8.380495 -16.013079
62 62 1 0.000 -9.721659 -4.068233 -17.606959
63 63 1 0.000 -9.478562 -2.307938 -13.851663
64 64 1 0.000 -16.628556 -8.449697 -10.284756
65 65 1 0.000 -13.470228 -2.078631 -10.428019
66 66 1 0.000 -4.854822 -8.673091 -19.284531
67 67 1 0.000 -0.377672 -3.792497 -9.832917
68 68 1 0.000 0.521859 -3.304289 -12.942106
69 69 1 0.000 -2.022169 -2.447408 -16.598250
70 70 1 0.000 -9.497424 -7.105395 -20.311199
71 71 1 0.000 -8.790561 1.080439 -17.281276
72 72 1 0.000 -3.459942 -0.884877 -12.054531
73 73 1 0.000 -1.283927 -8.960651 20.430865
74 74 1 0.000 -2.260656 -0.375730 -19.631665
75 75 1 0.000 -6.373242 -9.615112 -12.414192
76 76 1 0.000 -2.966989 -5.800891 -19.080216
77 77 1 0.000 -7.302870 -4.908089 -13.406296
78 78 1 0.000 -3.854713 -5.748173 -12.631907
79 79 1 0.000 -5.846230 -0.643833 -20.295312
80 80 1 0.000 -2.678217 -7.440124 -15.513084
81 81 1 0.000 -6.844257 -0.372353 -14.851978
82 82 1 0.000 -7.018854 -7.910843 -16.701836
83 83 1 0.000 -5.085533 -3.152467 -18.155410
84 84 1 0.000 -6.082676 -2.074353 -10.059353
85 85 1 0.000 -18.499678 -15.991054 -1.141458
86 86 1 0.000 -17.153993 -15.941891 -4.539527
87 87 1 0.000 -16.123372 -19.389847 -4.942661
88 88 1 0.000 -15.904790 -15.945224 -8.610896
89 89 1 0.000 -14.909125 -13.098252 -2.930384
90 90 1 0.000 -11.669355 -12.136563 -3.413361
91 91 1 0.000 -13.452952 -16.933471 -4.694974
92 92 1 0.000 -16.200601 -11.870670 -6.858196
93 93 1 0.000 -19.847349 -18.118814 -8.293521
94 94 1 0.000 -20.565896 -14.112913 -9.451813
95 95 1 0.000 -13.566031 -17.193124 -1.096507
96 96 1 0.000 -11.843658 -12.183606 -7.554137
97 97 1 0.000 -10.734482 -18.499613 -2.362512
98 98 1 0.000 -17.512182 -11.204998 -1.682852
99 99 1 0.000 -19.302431 -10.527518 -6.731936
100 100 1 0.000 -20.427487 -18.169233 -4.816001
101 101 1 0.000 -15.801082 -20.586480 -0.625446
102 102 1 0.000 -11.987372 -12.544807 0.840110
103 103 1 0.000 20.090043 -13.561420 -1.158669
104 104 1 0.000 19.937686 -14.924515 -5.008713
105 105 1 0.000 -6.797390 -11.761503 -8.739545
106 106 1 0.000 0.064406 -18.930305 -5.407473
107 107 1 0.000 0.660401 -14.726151 -7.610204
108 108 1 0.000 -9.430255 19.714193 -5.635486
109 109 1 0.000 -1.250224 -13.998362 -0.870836
110 110 1 0.000 0.549248 -17.973470 -1.891621
111 111 1 0.000 -2.072011 -18.011913 -9.236125
112 112 1 0.000 -0.530824 -15.435573 -3.783963
113 113 1 0.000 -9.072249 -17.333695 -8.527208
114 114 1 0.000 -9.416378 -9.968544 -8.003314
115 115 1 0.000 -8.361205 -15.268322 -5.976735
116 116 1 0.000 -7.775072 -16.892052 -0.408940
117 117 1 0.000 -2.449513 -20.357326 -6.761057
118 118 1 0.000 -5.827943 -15.729766 -8.242487
119 119 1 0.000 -3.671404 -11.726114 -6.900476
120 120 1 0.000 -5.309071 -14.733548 -3.465678
121 121 1 0.000 -7.377392 -12.221078 -2.314229
122 122 1 0.000 -3.026096 19.748120 -1.799404
123 123 1 0.000 -2.865036 -11.104370 -2.087445
124 124 1 0.000 -6.368810 -10.924887 0.575458
125 125 1 0.000 -18.223748 -0.146556 -8.766960
126 126 1 0.000 -10.872400 -9.077896 -4.194386
127 127 1 0.000 -19.004978 -1.394218 -5.487410
128 128 1 0.000 -13.694480 -0.154841 -2.022784
129 129 1 0.000 -11.171459 -1.040000 -7.807652
130 130 1 0.000 -15.996823 -8.219595 -0.815450
131 131 1 0.000 -14.354947 -0.008844 -5.651263
132 132 1 0.000 -12.353258 -3.920496 0.234049
133 133 1 0.000 -19.893861 -8.612610 -3.566982
134 134 1 0.000 -19.172512 -3.574372 -0.305087
135 135 1 0.000 -16.954248 -6.316634 -5.783307
136 136 1 0.000 -18.354669 -5.479713 -9.700809
137 137 1 0.000 -12.749367 -4.263627 -6.818006
138 138 1 0.000 -9.924268 -1.524275 -0.034316
139 139 1 0.000 -15.644373 -4.045177 -3.404991
140 140 1 0.000 -15.272417 -9.187086 -5.400451
141 141 1 0.000 -11.171061 -2.862840 -4.195502
142 142 1 0.000 -10.930089 -6.231865 -8.503918
143 143 1 0.000 -6.210333 -2.339197 -3.849773
144 144 1 0.000 -1.069765 -1.095412 -3.426140
145 145 1 0.000 -3.427537 -3.268260 -8.767411
146 146 1 0.000 -6.229343 -8.361186 -9.118576
147 147 1 0.000 -3.509680 0.194988 -6.546761
148 148 1 0.000 -5.035335 0.174670 -1.297550
149 149 1 0.000 -2.087177 -7.163224 -6.408081
150 150 1 0.000 -1.854058 -6.417679 0.225471
151 151 1 0.000 -8.664261 -5.938440 -6.042156
152 152 1 0.000 -6.537452 -8.879010 -5.278386
153 153 1 0.000 0.367883 -2.326230 -6.264461
154 154 1 0.000 0.375469 -9.999131 -0.646905
155 155 1 0.000 -8.972617 -4.774589 -2.037047
156 156 1 0.000 1.060228 -5.806424 -5.919968
157 157 1 0.000 -4.686849 -6.055930 -4.770647
158 158 1 0.000 -9.423064 -7.799483 -1.319763
159 159 1 0.000 -4.679929 -5.112610 0.513661
160 160 1 0.000 -17.284162 -12.366014 4.519865
161 161 1 0.000 -18.188618 -17.381197 2.879845
162 162 1 0.000 -17.001416 -17.833910 8.812323
163 163 1 0.000 -12.834707 -11.183178 4.998767
164 164 1 0.000 -15.907440 -15.618803 4.525622
165 165 1 0.000 -15.033334 -14.171458 1.558999
166 166 1 0.000 -12.248275 -15.827865 10.758435
167 167 1 0.000 -11.122651 -17.153630 3.808650
168 168 1 0.000 -19.263272 20.508668 6.363225
169 169 1 0.000 -16.733375 -14.543260 8.975293
170 170 1 0.000 -20.475382 -15.218362 6.068037
171 171 1 0.000 -20.357084 -11.591916 1.651129
172 172 1 0.000 -20.024496 -13.519870 9.557456
173 173 1 0.000 -14.974217 -19.442281 5.042710
174 174 1 0.000 -15.616224 -9.591014 1.999046
175 175 1 0.000 -19.411587 -19.592101 9.895283
176 176 1 0.000 -10.181934 -9.884603 2.868188
177 177 1 0.000 -12.618096 -11.019581 8.198456
178 178 1 0.000 -10.495434 -19.338660 7.463167
179 179 1 0.000 -10.046556 -13.998553 7.175677
180 180 1 0.000 19.508176 -10.811403 6.441374
181 181 1 0.000 -12.248915 20.021258 0.646400
182 182 1 0.000 20.188065 -17.253905 11.497152
183 183 1 0.000 -17.938894 -10.683728 10.116368
184 184 1 0.000 -0.220723 -12.812578 7.386458
185 185 1 0.000 -0.938015 -17.983758 0.936309
186 186 1 0.000 -4.658130 -20.049278 2.817404
187 187 1 0.000 -8.293479 -19.062737 10.181475
188 188 1 0.000 -1.417259 -18.123743 8.332256
189 189 1 0.000 -2.955589 -11.751919 4.296906
190 190 1 0.000 -6.062508 -19.850523 6.540028
191 191 1 0.000 -3.789288 -16.178338 1.482519
192 192 1 0.000 -1.212245 -14.978944 4.138840
193 193 1 0.000 -8.023758 -16.974083 3.159136
194 194 1 0.000 -8.670851 -13.574980 2.802858
195 195 1 0.000 -3.613657 -15.541225 7.711423
196 196 1 0.000 -7.007905 -15.035597 8.024442
197 197 1 0.000 -6.745175 -11.548451 5.329572
198 198 1 0.000 -4.550987 -12.995994 9.806251
199 199 1 0.000 -3.166717 -10.550108 8.215577
200 200 1 0.000 -9.504192 -13.570280 10.624956
201 201 1 0.000 -7.575117 19.694186 1.273835
202 202 1 0.000 1.432462 -11.325392 2.785687
203 203 1 0.000 -3.862112 -17.988866 11.065832
204 204 1 0.000 -0.243243 -15.013613 11.284476
205 205 1 0.000 -16.887131 -0.307854 9.506154
206 206 1 0.000 -20.655811 -7.740461 7.466047
207 207 1 0.000 -17.554511 -0.469696 4.352290
208 208 1 0.000 20.339102 -2.956347 7.496841
209 209 1 0.000 -12.605922 -7.909296 1.720331
210 210 1 0.000 -17.595490 -7.827030 5.777135
211 211 1 0.000 -13.737675 -4.214349 7.757842
212 212 1 0.000 -11.954521 -0.499548 2.800124
213 213 1 0.000 -14.802185 -7.579290 7.463264
214 214 1 0.000 -11.139193 -2.901384 6.431325
215 215 1 0.000 -17.196511 -4.601756 1.966353
216 216 1 0.000 -18.034432 -3.340205 4.878585
217 217 1 0.000 -13.320614 -5.081397 3.344464
218 218 1 0.000 -9.410697 -7.027104 6.557595
219 219 1 0.000 20.055157 0.766923 9.408590
220 220 1 0.000 -9.337547 0.630424 6.467313
221 221 1 0.000 -0.298394 -0.561376 1.713514
222 222 1 0.000 -7.951374 -0.490664 3.614661
223 223 1 0.000 -8.803388 -5.094930 3.655741
224 224 1 0.000 -1.032178 -0.180805 5.601638
225 225 1 0.000 -6.798867 -4.164510 6.429518
226 226 1 0.000 0.421031 -3.084173 3.122505
227 227 1 0.000 -4.058895 -1.748479 4.452851
228 228 1 0.000 0.037001 -8.204522 5.877279
229 229 1 0.000 -3.526691 -1.364065 10.415704
230 230 1 0.000 -7.679890 -1.760768 10.413002
231 231 1 0.000 -2.375961 -6.837057 4.277785
232 232 1 0.000 -0.819665 -4.053391 8.221815
233 233 1 0.000 -8.432827 -6.143460 9.721914
234 234 1 0.000 -6.337642 -7.520158 1.618879
235 235 1 0.000 -5.069754 -8.847053 5.545739
236 236 1 0.000 -6.787964 -8.892643 10.728934
237 237 1 0.000 -3.740536 -5.373064 9.175685
238 238 1 0.000 -1.708855 -7.965655 10.772560
239 239 1 0.000 0.873720 -0.511834 9.318127
240 240 1 0.000 -15.657003 -18.935653 14.436358
241 241 1 0.000 -13.795060 -16.902807 16.990470
242 242 1 0.000 -18.453980 -15.430388 12.580328
243 243 1 0.000 -19.113396 -13.255829 18.968343
244 244 1 0.000 -13.400579 -14.540752 13.717977
245 245 1 0.000 -9.833752 -13.960799 18.872889
246 246 1 0.000 -16.733951 -12.784758 14.954578
247 247 1 0.000 -14.604750 -13.388362 18.788609
248 248 1 0.000 -12.580849 -10.593771 18.702949
249 249 1 0.000 -11.084941 -10.743345 15.923632
250 250 1 0.000 -19.418455 -17.893805 19.463901
251 251 1 0.000 -17.139293 -16.455999 17.249466
252 252 1 0.000 -17.348401 -20.573922 16.690718
253 253 1 0.000 -11.272364 -18.372523 12.723181
254 254 1 0.000 20.630902 -13.585693 14.765754
255 255 1 0.000 -15.189386 -10.225331 15.471085
256 256 1 0.000 -17.222944 -9.149842 19.254648
257 257 1 0.000 -8.266123 -17.341063 17.788838
258 258 1 0.000 -6.417000 20.196819 14.232750
259 259 1 0.000 -9.148673 -18.612778 15.130155
260 260 1 0.000 -7.819181 19.816213 19.760952
261 261 1 0.000 -7.994886 -10.139690 17.913287
262 262 1 0.000 -0.789586 -10.105250 17.409607
263 263 1 0.000 -3.050134 -10.425260 13.161101
264 264 1 0.000 -2.059685 -20.408362 14.185699
265 265 1 0.000 -0.741074 -14.533449 19.621997
266 266 1 0.000 -3.120814 -12.748610 17.499077
267 267 1 0.000 -4.790775 -20.267769 18.257547
268 268 1 0.000 -4.027474 -16.234286 13.696418
269 269 1 0.000 -6.272121 -14.046915 13.931187
270 270 1 0.000 -4.006210 -17.089101 18.754666
271 271 1 0.000 0.292865 -14.393466 14.745154
272 272 1 0.000 -6.669869 -10.843619 14.106489
273 273 1 0.000 -18.538529 -0.178883 19.030036
274 274 1 0.000 -18.467635 -8.589871 12.641656
275 275 1 0.000 20.407996 -2.198244 19.094250
276 276 1 0.000 -18.208629 -5.165123 12.331755
277 277 1 0.000 -13.416695 0.246038 15.702345
278 278 1 0.000 -18.895806 -5.756195 15.844380
279 279 1 0.000 -13.893021 -2.608995 12.097848
280 280 1 0.000 -14.025044 -8.547148 12.397635
281 281 1 0.000 -15.282781 -2.652857 19.656021
282 282 1 0.000 -16.102850 -1.417220 15.074839
283 283 1 0.000 -18.287883 -0.635770 12.445127
284 284 1 0.000 -13.544837 -6.601714 17.352832
285 285 1 0.000 -11.496529 -6.675623 13.650833
286 286 1 0.000 -10.677667 -2.537910 16.402192
287 287 1 0.000 -9.932698 -0.799884 19.533390
288 288 1 0.000 -9.785349 -0.740001 13.763489
289 289 1 0.000 -19.170769 1.262276 15.431777
290 290 1 0.000 -5.590478 -6.049860 12.631537
291 291 1 0.000 0.180212 -2.501321 18.959828
292 292 1 0.000 -8.948716 -7.058918 16.934143
293 293 1 0.000 -4.662386 -5.679153 17.940519
294 294 1 0.000 -0.315288 -5.560444 18.247803
295 295 1 0.000 -6.266081 0.064753 17.740811
296 296 1 0.000 -7.086307 -2.448453 14.967499
297 297 1 0.000 -7.366488 -4.847671 19.305619
298 298 1 0.000 -0.666485 1.303257 16.375035
299 299 1 0.000 -0.994970 -6.492875 14.106043
300 300 1 0.000 -3.420872 -2.953987 14.837194
301 301 1 0.000 -12.793439 3.504028 -17.582495
302 302 1 0.000 -19.030983 7.423405 -17.888886
303 303 1 0.000 -16.225063 3.566886 -11.155763
304 304 1 0.000 -15.294736 4.905045 -18.355486
305 305 1 0.000 -16.913412 4.339406 -15.633058
306 306 1 0.000 -13.103798 7.596775 -15.402932
307 307 1 0.000 -13.810863 4.011465 -13.955175
308 308 1 0.000 20.501840 0.542977 -18.272987
309 309 1 0.000 -11.232697 8.472490 -11.681108
310 310 1 0.000 -9.424766 5.644380 -17.596788
311 311 1 0.000 -15.469183 9.259584 -13.482772
312 312 1 0.000 -19.384536 6.699666 -14.535352
313 313 1 0.000 -10.770516 4.143885 -20.614259
314 314 1 0.000 -13.679801 6.829700 -10.762290
315 315 1 0.000 -15.203690 8.966250 -18.193654
316 316 1 0.000 -9.345088 6.713558 -13.621770
317 317 1 0.000 -18.998169 8.670188 -9.593583
318 318 1 0.000 20.208732 8.134534 -20.238845
319 319 1 0.000 -12.930406 1.627734 -9.257131
320 320 1 0.000 -10.256005 4.204332 -9.574482
321 321 1 0.000 -8.694484 8.762308 -18.269268
322 322 1 0.000 -3.339867 3.508889 -20.008917
323 323 1 0.000 -2.757650 8.060135 -18.864166
324 324 1 0.000 -9.092514 9.399475 19.900972
325 325 1 0.000 -6.134393 10.755352 19.674431
326 326 1 0.000 -8.619353 3.434614 -13.715005
327 327 1 0.000 -0.439634 2.292602 -10.438654
328 328 1 0.000 -5.600164 6.330856 -19.645704
329 329 1 0.000 -0.498563 5.509135 -15.246621
330 330 1 0.000 -7.506894 11.408928 -14.128925
331 331 1 0.000 -2.771228 2.059107 -16.707257
332 332 1 0.000 -5.470186 5.811082 -16.043829
333 333 1 0.000 -1.977290 4.706487 -12.471872
334 334 1 0.000 -5.448339 8.513892 -14.125231
335 335 1 0.000 -7.292151 2.281846 -10.727350
336 336 1 0.000 -1.012591 8.043962 -11.108417
337 337 1 0.000 -1.477463 5.843874 19.767362
338 338 1 0.000 20.100116 12.226605 -13.994562
339 339 1 0.000 -19.675131 18.817595 -15.604065
340 340 1 0.000 -18.205363 12.805651 -19.950523
341 341 1 0.000 20.047553 20.599127 -18.627948
342 342 1 0.000 -14.430045 12.887910 -20.255397
343 343 1 0.000 -13.027880 17.700627 -12.169290
344 344 1 0.000 -10.874172 19.449096 -17.906756
345 345 1 0.000 -10.636675 16.401964 -16.068868
346 346 1 0.000 -15.509740 19.549809 -15.485773
347 347 1 0.000 -14.282928 11.730433 -17.191959
348 348 1 0.000 -20.336261 11.632061 -10.773477
349 349 1 0.000 -15.350069 17.656092 -18.664094
350 350 1 0.000 -11.927887 12.984508 -10.754169
351 351 1 0.000 -18.228071 17.873932 -11.053208
352 352 1 0.000 -20.441917 16.844899 -18.059441
353 353 1 0.000 -14.035743 12.199182 -13.030861
354 354 1 0.000 -15.080935 16.219444 -14.622111
355 355 1 0.000 -17.489020 16.423667 19.980858
356 356 1 0.000 -20.371776 16.217106 -12.883045
357 357 1 0.000 -17.457858 13.059223 -11.397049
358 358 1 0.000 -17.865797 14.739510 -15.121586
359 359 1 0.000 -10.489411 13.281690 -19.079026
360 360 1 0.000 -19.171498 15.461313 -9.423940
361 361 1 0.000 -8.247102 16.640040 20.450626
362 362 1 0.000 -0.041655 14.254921 -11.539671
363 363 1 0.000 1.201951 13.209948 -14.692652
364 364 1 0.000 -7.409346 13.213516 -18.134139
365 365 1 0.000 -4.025863 16.704607 20.075699
366 366 1 0.000 -9.310822 17.032185 -9.861203
367 367 1 0.000 -2.580356 15.880814 -16.784314
368 368 1 0.000 -1.731376 18.823180 -17.807809
369 369 1 0.000 -1.797468 13.541811 20.429469
370 370 1 0.000 -6.711845 19.513409 -17.125330
371 371 1 0.000 0.280164 19.687212 -13.666010
372 372 1 0.000 -2.476122 11.137036 -17.750612
373 373 1 0.000 -7.599165 11.422325 -10.864763
374 374 1 0.000 -7.421241 18.868247 -13.956107
375 375 1 0.000 -2.946817 16.353870 -10.663158
376 376 1 0.000 -4.088108 18.160565 -13.530067
377 377 1 0.000 -5.629516 15.461557 -16.178746
378 378 1 0.000 -7.022627 14.858011 -11.107666
379 379 1 0.000 -5.959381 19.646109 -9.180522
380 380 1 0.000 -19.523269 2.869118 -5.477900
381 381 1 0.000 -18.507577 6.638349 -5.044039
382 382 1 0.000 20.361749 5.744473 -7.368520
383 383 1 0.000 -14.433122 3.387325 -3.013858
384 384 1 0.000 -13.969796 7.316353 -7.035645
385 385 1 0.000 -12.498045 8.322257 -3.440784
386 386 1 0.000 -9.500522 9.671824 -4.061270
387 387 1 0.000 -10.696848 8.980891 -8.545321
388 388 1 0.000 -15.545313 5.600121 -0.503924
389 389 1 0.000 -11.179074 4.751659 -6.016928
390 390 1 0.000 -18.242046 1.317732 -1.919028
391 391 1 0.000 -17.311397 10.612280 -5.678458
392 392 1 0.000 -19.996721 9.149033 -2.473115
393 393 1 0.000 -19.877495 4.620056 -1.099947
394 394 1 0.000 -10.546299 2.791695 -1.330321
395 395 1 0.000 -10.595996 9.951508 -0.712272
396 396 1 0.000 -14.369751 11.001306 -4.605683
397 397 1 0.000 -0.710739 6.197803 -8.299305
398 398 1 0.000 -0.629197 8.355413 -1.595210
399 399 1 0.000 -4.372190 8.754615 -8.607623
400 400 1 0.000 -1.073019 3.729648 -1.878023
401 401 1 0.000 1.030041 7.253838 -4.417075
402 402 1 0.000 -0.610092 1.846432 -7.164583
403 403 1 0.000 -3.629119 1.792786 -3.865321
404 404 1 0.000 -7.031990 7.438990 -7.398668
405 405 1 0.000 -6.413227 4.364060 -8.328933
406 406 1 0.000 -6.621317 6.368916 -3.149180
407 407 1 0.000 -7.275491 4.256183 -0.359378
408 408 1 0.000 -5.056654 9.182183 -3.039183
409 409 1 0.000 -2.734955 5.542524 -4.743983
410 410 1 0.000 -0.626747 10.339059 -7.119169
411 411 1 0.000 -6.328109 9.269919 0.181065
412 412 1 0.000 -15.422935 14.971304 -8.780932
413 413 1 0.000 -14.563651 12.740763 -1.015007
414 414 1 0.000 -19.651818 13.399938 -1.700539
415 415 1 0.000 -11.274383 13.369385 -1.503363
416 416 1 0.000 -15.518096 11.546007 -8.534552
417 417 1 0.000 -11.643225 14.353661 -7.085709
418 418 1 0.000 -12.683827 18.281716 -2.389705
419 419 1 0.000 -20.055026 18.920927 -6.539945
420 420 1 0.000 -15.884300 15.533051 -5.293657
421 421 1 0.000 -18.109767 17.182640 -3.726924
422 422 1 0.000 -12.117556 17.797830 -6.652057
423 423 1 0.000 -16.654598 15.306040 0.379319
424 424 1 0.000 -9.605357 17.864699 -2.405227
425 425 1 0.000 -9.481971 13.667258 -5.005305
426 426 1 0.000 -3.298644 12.474234 -8.445811
427 427 1 0.000 -5.596515 17.433410 -6.669958
428 428 1 0.000 -3.981210 12.977922 0.363463
429 429 1 0.000 -0.579531 16.662591 0.854738
430 430 1 0.000 -5.625222 19.434919 -4.171137
431 431 1 0.000 0.711785 17.777268 -7.875163
432 432 1 0.000 -5.193608 14.189953 -3.796333
433 433 1 0.000 -2.062551 12.689411 -4.241489
434 434 1 0.000 -6.823141 11.974240 -6.131361
435 435 1 0.000 -2.698942 15.560092 -6.728436
436 436 1 0.000 -7.526627 12.345517 1.116846
437 437 1 0.000 -15.995809 6.691962 5.536358
438 438 1 0.000 -19.365689 3.508730 3.108398
439 439 1 0.000 -18.317466 6.853364 8.207375
440 440 1 0.000 -13.291804 2.877273 2.221922
441 441 1 0.000 -10.516535 5.293989 0.958836
442 442 1 0.000 -13.498260 7.363275 1.190338
443 443 1 0.000 -13.464848 0.702367 10.548083
444 444 1 0.000 -20.364511 6.802612 5.393918
445 445 1 0.000 -18.323159 7.719826 2.755710
446 446 1 0.000 -13.971482 9.519692 5.178945
447 447 1 0.000 -12.500319 3.239170 6.330937
448 448 1 0.000 19.452442 4.313462 8.988295
449 449 1 0.000 -19.117419 1.697214 6.875604
450 450 1 0.000 -10.876786 7.884009 10.258622
451 451 1 0.000 -18.210973 10.662853 9.472794
452 452 1 0.000 -15.305951 3.753257 11.388516
453 453 1 0.000 19.941548 1.671993 0.692514
454 454 1 0.000 -10.075203 3.241521 8.621606
455 455 1 0.000 -8.091659 6.078539 8.872711
456 456 1 0.000 -7.588604 5.902852 3.911859
457 457 1 0.000 -0.511045 7.578824 4.984110
458 458 1 0.000 -0.826197 3.703586 2.645636
459 459 1 0.000 -3.132869 1.649112 8.767875
460 460 1 0.000 -6.548526 2.487355 7.365864
461 461 1 0.000 -2.138982 9.817447 8.211267
462 462 1 0.000 -3.596007 3.751511 4.871944
463 463 1 0.000 -3.326500 5.879516 7.681614
464 464 1 0.000 -2.766462 9.272364 3.027467
465 465 1 0.000 -4.051178 5.773684 2.511848
466 466 1 0.000 -4.357561 8.763544 5.987276
467 467 1 0.000 -1.075269 3.334676 10.834450
468 468 1 0.000 -8.826304 10.445207 5.728518
469 469 1 0.000 -17.448501 19.566302 2.512598
470 470 1 0.000 -20.338676 13.912509 3.737266
471 471 1 0.000 -16.657930 13.860263 11.063061
472 472 1 0.000 -15.271266 10.905789 7.853797
473 473 1 0.000 -20.425742 13.255225 8.038142
474 474 1 0.000 19.815472 17.967844 6.228585
475 475 1 0.000 -11.605469 15.341106 7.639537
476 476 1 0.000 -18.142250 17.357408 7.406257
477 477 1 0.000 20.606001 19.592932 2.434395
478 478 1 0.000 -12.914014 13.040624 3.395595
479 479 1 0.000 -17.671008 12.557316 1.766132
480 480 1 0.000 -11.079447 11.115503 9.100935
481 481 1 0.000 19.926319 10.862856 4.580353
482 482 1 0.000 -16.385401 15.551124 5.621887
483 483 1 0.000 -11.504632 16.213954 3.248819
484 484 1 0.000 -14.532358 19.094081 6.506794
485 485 1 0.000 -11.659397 17.474868 10.300113
486 486 1 0.000 -15.735458 19.082380 10.421476
487 487 1 0.000 0.457015 12.582977 4.451804
488 488 1 0.000 0.095276 10.254102 1.042217
489 489 1 0.000 -0.704782 19.654176 2.652646
490 490 1 0.000 -3.690993 18.476083 1.121924
491 491 1 0.000 -6.202364 12.361918 4.297291
492 492 1 0.000 -9.485197 19.300428 6.251605
493 493 1 0.000 -6.669403 19.268549 10.889489
494 494 1 0.000 -5.573156 12.042790 9.575577
495 495 1 0.000 -8.351997 16.506540 2.163503
496 496 1 0.000 -0.440185 14.574665 9.758853
497 497 1 0.000 -5.102621 18.484107 6.852408
498 498 1 0.000 -8.450663 16.043505 6.961802
499 499 1 0.000 -3.848084 16.158597 8.660222
500 500 1 0.000 -9.063858 15.352429 11.135480
501 501 1 0.000 -14.304126 5.439517 15.350055
502 502 1 0.000 -13.715020 9.021134 14.311725
503 503 1 0.000 -19.127373 3.321853 18.378280
504 504 1 0.000 -17.427530 7.360371 16.995400
505 505 1 0.000 -14.179621 2.549546 18.972331
506 506 1 0.000 -12.697935 2.633113 13.082772
507 507 1 0.000 -18.688666 3.503403 13.171875
508 508 1 0.000 -16.816546 10.629417 18.587737
509 509 1 0.000 -14.774864 5.715139 18.759413
510 510 1 0.000 -10.482207 8.859195 15.134202
511 511 1 0.000 -17.661969 6.995652 12.548832
512 512 1 0.000 19.430724 4.718862 16.091803
513 513 1 0.000 -13.393213 10.906090 18.135625
514 514 1 0.000 -18.550099 11.467083 13.890630
515 515 1 0.000 -20.682817 10.612739 17.344784
516 516 1 0.000 0.472496 1.892104 19.638683
517 517 1 0.000 -7.557625 10.546140 11.796477
518 518 1 0.000 0.496311 9.507168 19.213556
519 519 1 0.000 0.752937 8.059481 10.881476
520 520 1 0.000 -3.688947 7.722659 18.047138
521 521 1 0.000 -4.154903 2.654018 16.973225
522 522 1 0.000 -6.589605 2.835746 12.918456
523 523 1 0.000 -8.601683 2.068053 15.734056
524 524 1 0.000 -6.487790 6.438212 17.190433
525 525 1 0.000 -2.183760 9.763988 11.697584
526 526 1 0.000 -6.019312 10.250263 15.049338
527 527 1 0.000 0.053080 7.593744 14.594745
528 528 1 0.000 -4.907378 6.277449 12.908505
529 529 1 0.000 -20.677183 17.076127 17.165073
530 530 1 0.000 20.621088 13.159955 19.381224
531 531 1 0.000 -13.329156 12.694271 11.335607
532 532 1 0.000 -13.448812 18.309620 18.812999
533 533 1 0.000 -18.063919 14.329164 15.736615
534 534 1 0.000 -10.893287 16.173632 18.778423
535 535 1 0.000 -14.679618 16.679018 13.059701
536 536 1 0.000 -17.445199 18.302591 14.035809
537 537 1 0.000 -10.098547 15.154418 14.825109
538 538 1 0.000 20.021518 16.442659 14.010476
539 539 1 0.000 0.178605 16.930977 18.452435
540 540 1 0.000 -3.245560 12.932218 16.591199
541 541 1 0.000 -6.259969 13.682295 18.161963
542 542 1 0.000 0.739056 13.764735 18.457524
543 543 1 0.000 -9.364502 12.061045 15.516896
544 544 1 0.000 -2.140581 16.946127 11.755862
545 545 1 0.000 -2.617965 17.831460 16.942402
546 546 1 0.000 -3.625345 13.944728 12.634884
547 547 1 0.000 9.364773 -15.877141 -13.470151
548 548 1 0.000 6.975950 -16.185983 -16.671269
549 549 1 0.000 2.479277 -20.610359 -19.444024
550 550 1 0.000 7.584561 -12.920423 -16.631975
551 551 1 0.000 5.435402 -18.175698 -14.312584
552 552 1 0.000 7.388366 -18.709819 -20.325462
553 553 1 0.000 1.951711 -10.523567 -11.722994
554 554 1 0.000 9.542163 -19.856504 -14.502406
555 555 1 0.000 5.582466 -13.622425 -12.796989
556 556 1 0.000 2.740399 -15.270638 -15.135095
557 557 1 0.000 4.251427 -17.947745 -18.721330
558 558 1 0.000 5.295242 -10.734706 -17.058123
559 559 1 0.000 7.997970 -12.411516 -10.640152
560 560 1 0.000 1.266749 -13.649323 -19.286803
561 561 1 0.000 7.801450 -11.823838 20.416290
562 562 1 0.000 10.726288 -14.830612 -20.334942
563 563 1 0.000 7.729136 -19.058112 -9.849514
564 564 1 0.000 5.246350 -15.133089 -9.560208
565 565 1 0.000 5.788086 -10.047808 -12.081457
566 566 1 0.000 3.711389 -9.522102 -20.211735
567 567 1 0.000 2.579017 -16.909745 -10.047138
568 568 1 0.000 10.707900 -9.598613 -13.889646
569 569 1 0.000 10.541874 -10.620245 -19.829096
570 570 1 0.000 17.015126 -18.751353 20.354451
571 571 1 0.000 12.545790 -20.397218 -15.466015
572 572 1 0.000 14.991526 -12.723762 -19.510338
573 573 1 0.000 11.263469 20.169440 -10.465277
574 574 1 0.000 18.692348 -11.250191 -9.675543
575 575 1 0.000 12.735599 -13.708661 -11.800120
576 576 1 0.000 19.632703 -17.590479 -12.818404
577 577 1 0.000 18.518821 -14.951590 -17.723409
578 578 1 0.000 17.031087 -10.692891 -18.157509
579 579 1 0.000 12.245099 -14.996805 -14.965062
580 580 1 0.000 14.585613 -15.839774 -18.437203
581 581 1 0.000 16.650971 -14.024658 -13.725911
582 582 1 0.000 15.951236 -18.281978 -16.149967
583 583 1 0.000 17.601993 -11.046894 -14.995668
584 584 1 0.000 13.909656 -9.294669 -17.202657
585 585 1 0.000 15.296102 -17.696485 -11.771171
586 586 1 0.000 11.451844 -20.583851 -19.723032
587 587 1 0.000 15.484590 -13.250901 -10.153495
588 588 1 0.000 13.100895 -9.775456 -11.106983
589 589 1 0.000 12.573870 -16.408327 -9.843689
590 590 1 0.000 17.654026 -15.547316 -9.729245
591 591 1 0.000 2.620668 -8.298555 -13.958513
592 592 1 0.000 5.668192 -4.039382 -19.455387
593 593 1 0.000 7.616779 0.834431 -11.768417
594 594 1 0.000 4.050665 0.401115 -11.353735
595 595 1 0.000 2.897216 -1.022314 -13.832614
596 596 1 0.000 1.260719 -1.731287 -18.922197
597 597 1 0.000 9.365876 -2.549494 -17.411734
598 598 1 0.000 6.386740 -5.225031 -11.426094
599 599 1 0.000 6.816213 -2.152457 -15.163599
600 600 1 0.000 7.615447 -7.602809 -17.892868
601 601 1 0.000 2.728325 -5.915854 -19.206478
602 602 1 0.000 3.248513 -4.624237 -15.694242
603 603 1 0.000 8.892626 -6.660602 -13.387459
604 604 1 0.000 10.779755 -5.655375 20.456756
605 605 1 0.000 6.582891 -2.747529 -9.415305
606 606 1 0.000 10.312654 -2.798772 -12.075693
607 607 1 0.000 7.789194 1.275157 -18.595370
608 608 1 0.000 10.221768 -7.911079 -9.947859
609 609 1 0.000 18.036743 -0.871301 -20.070712
610 610 1 0.000 15.544962 -2.042940 -15.889297
611 611 1 0.000 12.815108 0.469523 -13.721351
612 612 1 0.000 19.818892 0.306530 -14.980628
613 613 1 0.000 11.563359 -0.272437 -16.626449
614 614 1 0.000 17.087260 0.117592 -11.956367
615 615 1 0.000 12.393522 -6.623744 -13.101249
616 616 1 0.000 10.680916 -0.112487 19.966288
617 617 1 0.000 15.583404 -5.751136 -11.302987
618 618 1 0.000 12.456354 -3.604246 -15.330252
619 619 1 0.000 17.234765 -3.276598 -12.915400
620 620 1 0.000 15.903896 -6.251105 -17.851459
621 621 1 0.000 15.285271 -7.677658 20.355924
622 622 1 0.000 12.022586 -5.940942 -18.039635
623 623 1 0.000 19.001499 -6.396114 -20.528898
624 624 1 0.000 12.745592 -5.219670 -9.687992
625 625 1 0.000 19.869710 -8.089584 -9.355162
626 626 1 0.000 14.635538 -3.084522 20.039691
627 627 1 0.000 4.503078 -15.907527 -2.095514
628 628 1 0.000 8.766840 -15.389601 -6.991093
629 629 1 0.000 9.658463 -12.885217 -3.189422
630 630 1 0.000 6.224285 -11.287240 -2.799930
631 631 1 0.000 5.173648 -18.863631 -6.504414
632 632 1 0.000 6.442895 -12.830569 -6.567331
633 633 1 0.000 3.260968 -12.450114 -3.688816
634 634 1 0.000 2.135643 -9.846500 -5.753513
635 635 1 0.000 8.269140 -17.738070 -4.643872
636 636 1 0.000 4.564962 -20.577452 -2.116094
637 637 1 0.000 9.828552 -20.090616 -0.127191
638 638 1 0.000 10.693989 -19.315384 -7.751930
639 639 1 0.000 6.553379 -19.008915 0.144278
640 640 1 0.000 11.288972 -16.072442 -2.547509
641 641 1 0.000 8.395356 -9.275228 -5.417759
642 642 1 0.000 9.015915 -15.877089 0.209334
643 643 1 0.000 8.224769 -11.350866 0.622306
644 644 1 0.000 17.838193 20.404053 -7.916872
645 645 1 0.000 19.187407 20.463477 -4.327052